% Model:              ring_decel_osterwalder.mph
% Version:            COMSOL 5.4.0.225
% Date:               Mar 20 2019, 06:44
% Dimension:          2
% Nodes:              1281
% Expressions:        1
% Description:        Electric field norm
% Length unit:        mm
% r                       z                        es.normE (V/m) @ ph=0.6545
0                         -4.25                    2992198.45706818
0.1                       -4.25                    2994593.8509484758
0.2                       -4.25                    3000458.631408626
0.30000000000000004       -4.25                    3009173.8621143093
0.4                       -4.25                    3022046.174029785
0.5                       -4.25                    3038186.7449628143
0.6000000000000001        -4.25                    3058062.725416459
0.7000000000000001        -4.25                    3079638.8051967877
0.8                       -4.25                    3104911.275251228
0.9000000000000001        -4.25                    3134365.8136562295
1                         -4.25                    3159817.206282037
1.1                       -4.25                    3190095.152733831
1.2000000000000002        -4.25                    3220453.59006674
1.3000000000000003        -4.25                    3247288.069925437
1.4000000000000001        -4.25                    3268087.961574875
1.5                       -4.25                    3283103.689538437
1.6                       -4.25                    3311534.713075736
1.7000000000000002        -4.25                    3323363.462612274
1.8000000000000003        -4.25                    3448914.2020971994
1.9000000000000001        -4.25                    3687645.194280354
2                         -4.25                    4423005.129923047
0                         -4.15                    2989762.022719309
0.1                       -4.15                    2992443.4523130227
0.2                       -4.15                    2998337.9070058325
0.30000000000000004       -4.15                    3007747.3582426873
0.4                       -4.15                    3022457.7229666766
0.5                       -4.15                    3038827.6604158054
0.6000000000000001        -4.15                    3060203.6351835653
0.7000000000000001        -4.15                    3086926.2009238163
0.8                       -4.15                    3114009.3293606983
0.9000000000000001        -4.15                    3145770.407723599
1                         -4.15                    3184907.155420305
1.1                       -4.15                    3222823.0798852015
1.2000000000000002        -4.15                    3262941.018935343
1.3000000000000003        -4.15                    3312373.9574565906
1.4000000000000001        -4.15                    3363464.490734563
1.5                       -4.15                    3427735.1888442934
1.6                       -4.15                    3495497.876054456
1.7000000000000002        -4.15                    3627677.7424952327
1.8000000000000003        -4.15                    3828760.850994223
1.9000000000000001        -4.15                    4167801.1519718627
2                         -4.15                    4789948.341830455
0                         -4.05                    2979562.9709811127
0.1                       -4.05                    2982251.0304423394
0.2                       -4.05                    2988842.710697562
0.30000000000000004       -4.05                    2998762.2281573582
0.4                       -4.05                    3013395.1584788817
0.5                       -4.05                    3032499.8701347513
0.6000000000000001        -4.05                    3056320.5343671977
0.7000000000000001        -4.05                    3083226.109587929
0.8                       -4.05                    3116088.503068465
0.9000000000000001        -4.05                    3156069.876790348
1                         -4.05                    3195648.6358333454
1.1                       -4.05                    3246709.7067933623
1.2000000000000002        -4.05                    3307598.478305063
1.3000000000000003        -4.05                    3366659.6388562266
1.4000000000000001        -4.05                    3456073.810326921
1.5                       -4.05                    3545318.942909862
1.6                       -4.05                    3662318.8521611216
1.7000000000000002        -4.05                    3848389.9195711785
1.8000000000000003        -4.05                    4073470.32030234
1.9000000000000001        -4.05                    4424966.865901455
2                         -4.05                    4912871.913210281
0                         -3.95                    2961090.9967217897
0.1                       -3.95                    2964062.4736339548
0.2                       -3.95                    2970712.672078355
0.30000000000000004       -3.95                    2981281.0056234132
0.4                       -3.95                    2997802.0291046635
0.5                       -3.95                    3017096.3386388184
0.6000000000000001        -3.95                    3042453.5679648174
0.7000000000000001        -3.95                    3074339.6013493445
0.8                       -3.95                    3108854.8208813653
0.9000000000000001        -3.95                    3151590.3932571015
1                         -3.95                    3204909.3745429153
1.1                       -3.95                    3260517.401287846
1.2000000000000002        -3.95                    3329146.998875689
1.3000000000000003        -3.95                    3418090.314882711
1.4000000000000001        -3.95                    3511764.398070031
1.5                       -3.95                    3634786.520791939
1.6                       -3.95                    3782722.8808680484
1.7000000000000002        -3.95                    3990850.282150793
1.8000000000000003        -3.95                    4251711.734776891
1.9000000000000001        -3.95                    4582489.768571689
2                         -3.95                    4969168.360196142
0                         -3.85                    2934049.707862583
0.1                       -3.85                    2937026.238906706
0.2                       -3.85                    2944150.5804112437
0.30000000000000004       -3.85                    2955153.943627601
0.4                       -3.85                    2971778.9244159358
0.5                       -3.85                    2992893.4968165075
0.6000000000000001        -3.85                    3020096.3087654375
0.7000000000000001        -3.85                    3052271.7931811353
0.8                       -3.85                    3091118.922322962
0.9000000000000001        -3.85                    3139718.4088043906
1                         -3.85                    3192994.8805225072
1.1                       -3.85                    3259228.869491605
1.2000000000000002        -3.85                    3345025.855479191
1.3000000000000003        -3.85                    3430736.242361878
1.4000000000000001        -3.85                    3551179.615553559
1.5                       -3.85                    3693341.719218077
1.6                       -3.85                    3870797.3344185925
1.7000000000000002        -3.85                    4101312.703291478
1.8000000000000003        -3.85                    4364974.223308052
1.9000000000000001        -3.85                    4676963.703924829
2                         -3.85                    5007859.635713224
0                         -3.75                    2898123.130460516
0.1                       -3.75                    2901224.9230819773
0.2                       -3.75                    2908452.171442926
0.30000000000000004       -3.75                    2919761.856769664
0.4                       -3.75                    2937241.5796484924
0.5                       -3.75                    2958657.240063317
0.6000000000000001        -3.75                    2986710.8838202814
0.7000000000000001        -3.75                    3021211.1220510793
0.8                       -3.75                    3060859.6823235033
0.9000000000000001        -3.75                    3111651.411101931
1                         -3.75                    3171924.770571435
1.1                       -3.75                    3238763.495119598
1.2000000000000002        -3.75                    3325370.01507041
1.3000000000000003        -3.75                    3431435.386112734
1.4000000000000001        -3.75                    3548490.1623179493
1.5                       -3.75                    3718624.7533839187
1.6                       -3.75                    3913257.654058321
1.7000000000000002        -3.75                    4162882.4791651806
1.8000000000000003        -3.75                    4444200.7402253095
1.9000000000000001        -3.75                    4754408.331341133
2                         -3.75                    5088714.929385726
0                         -3.65                    2853227.701558245
0.1                       -3.65                    2856350.411673684
0.2                       -3.65                    2863557.3195330664
0.30000000000000004       -3.65                    2875013.4147210894
0.4                       -3.65                    2892733.8347810423
0.5                       -3.65                    2914185.3206467303
0.6000000000000001        -3.65                    2942633.523460541
0.7000000000000001        -3.65                    2977637.352633107
0.8                       -3.65                    3017858.174991374
0.9000000000000001        -3.65                    3069696.15380746
1                         -3.65                    3129886.938741023
1.1                       -3.65                    3202587.263611935
1.2000000000000002        -3.65                    3292433.186897539
1.3000000000000003        -3.65                    3397593.7331483993
1.4000000000000001        -3.65                    3530967.1936170603
1.5                       -3.65                    3704313.743272161
1.6                       -3.65                    3905094.132407394
1.7000000000000002        -3.65                    4160010.080501331
1.8000000000000003        -3.65                    4475048.096412016
1.9000000000000001        -3.65                    4827337.34612174
2                         -3.65                    5210347.3871022975
0                         -3.55                    2799447.6258231765
0.1                       -3.55                    2802448.8706565453
0.2                       -3.55                    2809817.3169468427
0.30000000000000004       -3.55                    2821111.140355285
0.4                       -3.55                    2838137.6920482693
0.5                       -3.55                    2860050.460045027
0.6000000000000001        -3.55                    2888361.061962756
0.7000000000000001        -3.55                    2921669.0280133258
0.8                       -3.55                    2961983.102570249
0.9000000000000001        -3.55                    3014894.705152568
1                         -3.55                    3071800.203083375
1.1                       -3.55                    3143280.0383116654
1.2000000000000002        -3.55                    3228184.613093977
1.3000000000000003        -3.55                    3335829.499520109
1.4000000000000001        -3.55                    3468636.890954538
1.5                       -3.55                    3632800.285881384
1.6                       -3.55                    3852126.905644233
1.7000000000000002        -3.55                    4118683.8975036987
1.8000000000000003        -3.55                    4453520.087289115
1.9000000000000001        -3.55                    4888085.723700757
2                         -3.55                    5357284.436152882
0                         -3.45                    2736987.2765834974
0.1                       -3.45                    2740040.64370763
0.2                       -3.45                    2746854.484850873
0.30000000000000004       -3.45                    2757939.224330653
0.4                       -3.45                    2775386.026347557
0.5                       -3.45                    2795413.467982504
0.6000000000000001        -3.45                    2822316.6963545308
0.7000000000000001        -3.45                    2856555.820379033
0.8                       -3.45                    2893363.5324199637
0.9000000000000001        -3.45                    2940641.664737648
1                         -3.45                    2999237.634409562
1.1                       -3.45                    3069161.0014159805
1.2000000000000002        -3.45                    3143243.8940671086
1.3000000000000003        -3.45                    3242954.2910096184
1.4000000000000001        -3.45                    3375616.8771671955
1.5                       -3.45                    3531881.2910057115
1.6                       -3.45                    3750146.5801807744
1.7000000000000002        -3.45                    4006579.0519819073
1.8000000000000003        -3.45                    4372344.235098704
1.9000000000000001        -3.45                    4879136.663018251
2                         -3.45                    5506984.993425294
0                         -3.35                    2666359.093588935
0.1                       -3.35                    2669077.7951812516
0.2                       -3.35                    2676104.213511317
0.30000000000000004       -3.35                    2686660.837067038
0.4                       -3.35                    2702000.3212812
0.5                       -3.35                    2722718.363019718
0.6000000000000001        -3.35                    2748670.0329298885
0.7000000000000001        -3.35                    2777737.417284467
0.8                       -3.35                    2814110.8620737395
0.9000000000000001        -3.35                    2861380.803856624
1                         -3.35                    2906723.3246537345
1.1                       -3.35                    2966034.9443869726
1.2000000000000002        -3.35                    3043492.7432519626
1.3000000000000003        -3.35                    3140335.8024619655
1.4000000000000001        -3.35                    3242403.7123833057
1.5                       -3.35                    3374930.6096209087
1.6                       -3.35                    3558555.1760434164
1.7000000000000002        -3.35                    3837455.918640771
1.8000000000000003        -3.35                    4203517.240654991
1.9000000000000001        -3.35                    4751438.474496813
2                         -3.35                    5617752.627802588
0                         -3.2500000000000004      2588002.2967911675
0.1                       -3.2500000000000004      2590800.040929049
0.2                       -3.2500000000000004      2596958.2433579643
0.30000000000000004       -3.2500000000000004      2607089.6436191117
0.4                       -3.2500000000000004      2623106.4607573976
0.5                       -3.2500000000000004      2640689.835799932
0.6000000000000001        -3.2500000000000004      2664134.2570444224
0.7000000000000001        -3.2500000000000004      2694338.937320036
0.8                       -3.2500000000000004      2724886.3204377503
0.9000000000000001        -3.2500000000000004      2762263.276297724
1                         -3.2500000000000004      2810173.0498075504
1.1                       -3.2500000000000004      2859797.1819966678
1.2000000000000002        -3.2500000000000004      2915559.3074225322
1.3000000000000003        -3.2500000000000004      2985788.5996648786
1.4000000000000001        -3.2500000000000004      3071344.7219978976
1.5                       -3.2500000000000004      3184749.9632859267
1.6                       -3.2500000000000004      3328285.5834917077
1.7000000000000002        -3.2500000000000004      3518374.836815742
1.8000000000000003        -3.2500000000000004      3870337.384912539
1.9000000000000001        -3.2500000000000004      4471638.342619594
2                         -3.2500000000000004      5531398.097148611
0                         -3.15                    2502688.6456361027
0.1                       -3.15                    2505083.2027057465
0.2                       -3.15                    2511483.575714596
0.30000000000000004       -3.15                    2520995.921940307
0.4                       -3.15                    2534427.5452946494
0.5                       -3.15                    2552813.0247827573
0.6000000000000001        -3.15                    2574987.37542467
0.7000000000000001        -3.15                    2598980.137372664
0.8                       -3.15                    2628739.681269403
0.9000000000000001        -3.15                    2664538.5175767695
1                         -3.15                    2696885.9369393634
1.1                       -3.15                    2738675.3648904352
1.2000000000000002        -3.15                    2789642.9323192276
1.3000000000000003        -3.15                    2835743.5130338175
1.4000000000000001        -3.15                    2888717.0173058175
1.5                       -3.15                    2952098.656408097
1.6                       -3.15                    3044380.8797543426
1.7000000000000002        -3.15                    3166671.765280814
1.8000000000000003        -3.15                    3404338.478787178
1.9000000000000001        -3.15                    3835538.0007155975
2                         -3.15                    4964631.77529401
0                         -3.05                    2410936.5651575774
0.1                       -3.05                    2413419.601802025
0.2                       -3.05                    2419009.1655787374
0.30000000000000004       -3.05                    2428157.4235836696
0.4                       -3.05                    2442380.490518353
0.5                       -3.05                    2457772.7848910405
0.6000000000000001        -3.05                    2477693.8316471917
0.7000000000000001        -3.05                    2502676.0757235126
0.8                       -3.05                    2526892.4071777156
0.9000000000000001        -3.05                    2554332.7044032975
1                         -3.05                    2587695.6180425263
1.1                       -3.05                    2616196.3835927146
1.2000000000000002        -3.05                    2645439.547364288
1.3000000000000003        -3.05                    2679204.51431322
1.4000000000000001        -3.05                    2706416.103338514
1.5                       -3.05                    2723646.269864972
1.6                       -3.05                    2735821.8210264053
1.7000000000000002        -3.05                    2758615.9625265743
1.8000000000000003        -3.05                    2779666.6120734634
1.9000000000000001        -3.05                    2891528.723032847
2                         -3.05                    3504918.8650693092
0                         -2.95                    2313497.471953053
0.1                       -2.95                    2315682.96840797
0.2                       -2.95                    2321534.7540454483
0.30000000000000004       -2.95                    2330305.6723090177
0.4                       -2.95                    2342812.8903366653
0.5                       -2.95                    2358831.21243154
0.6000000000000001        -2.95                    2377894.171345009
0.7000000000000001        -2.95                    2398447.993334372
0.8                       -2.95                    2422140.7747165803
0.9000000000000001        -2.95                    2447733.74393715
1                         -2.95                    2470295.5719087874
1.1                       -2.95                    2495229.96666121
1.2000000000000002        -2.95                    2515076.6509604068
1.3000000000000003        -2.95                    2523152.9855843848
1.4000000000000001        -2.95                    2527360.3030109876
1.5                       -2.95                    2507811.6898149126
1.6                       -2.95                    2468121.762963742
1.7000000000000002        -2.95                    2353204.191084004
1.8000000000000003        -2.95                    2198389.8120165346
1.9000000000000001        -2.95                    1942515.4309427605
2                         -2.95                    1724749.768002351
0                         -2.8499999999999996      2210788.17652981
0.1                       -2.8499999999999996      2213062.4479699335
0.2                       -2.8499999999999996      2218493.704412585
0.30000000000000004       -2.8499999999999996      2227220.1097335354
0.4                       -2.8499999999999996      2240076.788616791
0.5                       -2.8499999999999996      2254976.4319780385
0.6000000000000001        -2.8499999999999996      2273161.2861562185
0.7000000000000001        -2.8499999999999996      2294561.8979565613
0.8                       -2.8499999999999996      2315823.553681464
0.9000000000000001        -2.8499999999999996      2337602.1206792556
1                         -2.8499999999999996      2360340.74120484
1.1                       -2.8499999999999996      2377796.3928043838
1.2000000000000002        -2.8499999999999996      2387191.555112205
1.3000000000000003        -2.8499999999999996      2395485.939702725
1.4000000000000001        -2.8499999999999996      2377140.3922941443
1.5                       -2.8499999999999996      2344122.716005551
1.6                       -2.8499999999999996      2226621.4131140416
1.7000000000000002        -2.8499999999999996      2091232.9636387622
1.8000000000000003        -2.8499999999999996      1833904.5877407056
1.9000000000000001        -2.8499999999999996      1345302.925316054
2                         -2.8499999999999996      503277.2042784465
0                         -2.75                    2103296.117276207
0.1                       -2.75                    2105491.8641940737
0.2                       -2.75                    2111223.5584547906
0.30000000000000004       -2.75                    2120061.222451083
0.4                       -2.75                    2132764.4363359613
0.5                       -2.75                    2148228.470075698
0.6000000000000001        -2.75                    2166621.085024666
0.7000000000000001        -2.75                    2187207.903331904
0.8                       -2.75                    2208888.5776867606
0.9000000000000001        -2.75                    2230575.046140813
1                         -2.75                    2251963.497946913
1.1                       -2.75                    2269893.209611577
1.2000000000000002        -2.75                    2278554.4990165103
1.3000000000000003        -2.75                    2277803.0113155027
1.4000000000000001        -2.75                    2255661.613239106
1.5                       -2.75                    2205033.1969493674
1.6                       -2.75                    2120209.8157210187
1.7000000000000002        -2.75                    1967654.5621296074
1.8000000000000003        -2.75                    1738393.0036687346
1.9000000000000001        -2.75                    1391197.4391927002
2                         -2.75                    1081057.4164893318
0                         -2.65                    1991223.0060926834
0.1                       -2.65                    1993514.1373425073
0.2                       -2.65                    1999351.1413300338
0.30000000000000004       -2.65                    2008594.9910702077
0.4                       -2.65                    2022011.2905012686
0.5                       -2.65                    2037980.3788213283
0.6000000000000001        -2.65                    2057377.5699518353
0.7000000000000001        -2.65                    2078929.6013199494
0.8                       -2.65                    2102302.9850200335
0.9000000000000001        -2.65                    2126134.6553278286
1                         -2.65                    2147837.622694473
1.1                       -2.65                    2167245.8800374474
1.2000000000000002        -2.65                    2182921.4001784343
1.3000000000000003        -2.65                    2188568.3868011613
1.4000000000000001        -2.65                    2172594.2405682565
1.5                       -2.65                    2132729.6975444085
1.6                       -2.65                    2063401.6779819818
1.7000000000000002        -2.65                    1958255.6427421435
1.8000000000000003        -2.65                    1805363.3485742395
1.9000000000000001        -2.65                    1634342.8010303061
2                         -2.65                    1561075.4338857352
0                         -2.55                    1874709.0835422426
0.1                       -2.55                    1877143.4804719638
0.2                       -2.55                    1883369.2492661674
0.30000000000000004       -2.55                    1893263.205676509
0.4                       -2.55                    1907636.4335755154
0.5                       -2.55                    1924782.912495873
0.6000000000000001        -2.55                    1945570.9911013872
0.7000000000000001        -2.55                    1969958.915623503
0.8                       -2.55                    1995160.7787137404
0.9000000000000001        -2.55                    2020852.9517846738
1                         -2.55                    2050711.794121638
1.1                       -2.55                    2075680.5769737978
1.2000000000000002        -2.55                    2094614.6271258504
1.3000000000000003        -2.55                    2110079.759787776
1.4000000000000001        -2.55                    2108926.211541726
1.5                       -2.55                    2098024.391969251
1.6                       -2.55                    2065163.274406337
1.7000000000000002        -2.55                    2008363.9545524507
1.8000000000000003        -2.55                    1922838.5370173468
1.9000000000000001        -2.55                    1869103.2915716688
2                         -2.55                    1866702.0432153728
0                         -2.45                    1753752.9731205571
0.1                       -2.45                    1756312.5412900336
0.2                       -2.45                    1763059.8028562467
0.30000000000000004       -2.45                    1773786.5287687886
0.4                       -2.45                    1789150.272872457
0.5                       -2.45                    1808208.7197303448
0.6000000000000001        -2.45                    1831676.116978685
0.7000000000000001        -2.45                    1857586.0217020167
0.8                       -2.45                    1887556.604070605
0.9000000000000001        -2.45                    1920670.152440082
1                         -2.45                    1951866.0653443
1.1                       -2.45                    1985425.4153491417
1.2000000000000002        -2.45                    2017810.6701907446
1.3000000000000003        -2.45                    2044345.900974584
1.4000000000000001        -2.45                    2071078.938452253
1.5                       -2.45                    2085950.5524754953
1.6                       -2.45                    2077087.3732058483
1.7000000000000002        -2.45                    2083159.0185775077
1.8000000000000003        -2.45                    2079125.060052843
1.9000000000000001        -2.45                    2086717.6020537391
2                         -2.45                    2120066.6821295302
0                         -2.3499999999999996      1628264.9793027388
0.1                       -2.3499999999999996      1631089.6983709284
0.2                       -2.3499999999999996      1638395.9858341883
0.30000000000000004       -2.3499999999999996      1650186.739772554
0.4                       -2.3499999999999996      1667308.0285422476
0.5                       -2.3499999999999996      1688158.2578865
0.6000000000000001        -2.3499999999999996      1713874.0593692807
0.7000000000000001        -2.3499999999999996      1744593.2270214055
0.8                       -2.3499999999999996      1777651.2696711747
0.9000000000000001        -2.3499999999999996      1814252.8696453285
1                         -2.3499999999999996      1857483.9023712608
1.1                       -2.3499999999999996      1900516.5124072924
1.2000000000000002        -2.3499999999999996      1940979.674507952
1.3000000000000003        -2.3499999999999996      1991885.843070989
1.4000000000000001        -2.3499999999999996      2036685.1160879654
1.5                       -2.3499999999999996      2074397.477232678
1.6                       -2.3499999999999996      2126338.9257090683
1.7000000000000002        -2.3499999999999996      2165849.417262096
1.8000000000000003        -2.3499999999999996      2223424.4082054063
1.9000000000000001        -2.3499999999999996      2289706.8972633164
2                         -2.3499999999999996      2374514.904014419
0                         -2.2500000000000004      1498168.8048454148
0.1                       -2.2500000000000004      1501190.551952101
0.2                       -2.2500000000000004      1509175.8692314208
0.30000000000000004       -2.2500000000000004      1522106.3673336827
0.4                       -2.2500000000000004      1540728.6885659283
0.5                       -2.2500000000000004      1563900.5841256676