% Model:              ring_decel_osterwalder.mph
% Version:            COMSOL 5.4.0.225
% Date:               Mar 20 2019, 06:43
% Dimension:          2
% Nodes:              1281
% Expressions:        1
% Description:        Electric field norm
% Length unit:        mm
% r                       z                        es.normE (V/m) @ ph=0.3927
0                         -3.75                    3000428.73947867
0.1                       -3.75                    3003564.529934953
0.2                       -3.75                    3010818.23879381
0.30000000000000004       -3.75                    3022149.085154047
0.4                       -3.75                    3039722.313900654
0.5                       -3.75                    3061266.2533713556
0.6000000000000001        -3.75                    3089585.914626345
0.7000000000000001        -3.75                    3124303.8258068184
0.8                       -3.75                    3164431.1879433356
0.9000000000000001        -3.75                    3216377.5158204767
1                         -3.75                    3277118.0208864505
1.1                       -3.75                    3346052.229506986
1.2000000000000002        -3.75                    3435448.461298613
1.3000000000000003        -3.75                    3544002.7349575227
1.4000000000000001        -3.75                    3663400.5120335873
1.5                       -3.75                    3841399.5356595432
1.6                       -3.75                    4044867.651339806
1.7000000000000002        -3.75                    4302299.210102757
1.8000000000000003        -3.75                    4599443.903721985
1.9000000000000001        -3.75                    4923594.501718314
2                         -3.75                    5272351.233201661
0                         -3.65                    2994819.3050395614
0.1                       -3.65                    2997941.900038158
0.2                       -3.65                    3005086.790034528
0.30000000000000004       -3.65                    3016402.8364857077
0.4                       -3.65                    3033945.6333359964
0.5                       -3.65                    3055102.91272027
0.6000000000000001        -3.65                    3083136.151547716
0.7000000000000001        -3.65                    3117769.903561678
0.8                       -3.65                    3157335.157525379
0.9000000000000001        -3.65                    3207897.3200806915
1                         -3.65                    3267432.7647097018
1.1                       -3.65                    3338201.50852803
1.2000000000000002        -3.65                    3425315.4908278063
1.3000000000000003        -3.65                    3528252.910315634
1.4000000000000001        -3.65                    3658560.9926568847
1.5                       -3.65                    3829710.5471411357
1.6                       -3.65                    4022006.8667400796
1.7000000000000002        -3.65                    4274622.708407024
1.8000000000000003        -3.65                    4582635.232988051
1.9000000000000001        -3.65                    4934540.229675318
2                         -3.65                    5310165.824329529
0                         -3.55                    2980016.11108525
0.1                       -3.55                    2982986.349430225
0.2                       -3.55                    2990171.1169176227
0.30000000000000004       -3.55                    3001120.2497066725
0.4                       -3.55                    3017696.986746518
0.5                       -3.55                    3038882.462653555
0.6000000000000001        -3.55                    3066245.335808801
0.7000000000000001        -3.55                    3098158.2709760014
0.8                       -3.55                    3136672.80536798
0.9000000000000001        -3.55                    3187311.22174676
1                         -3.55                    3240418.1066898224
1.1                       -3.55                    3307476.8129692622
1.2000000000000002        -3.55                    3386852.353479362
1.3000000000000003        -3.55                    3485701.0237096148
1.4000000000000001        -3.55                    3607565.0499540567
1.5                       -3.55                    3757079.382460622
1.6                       -3.55                    3960629.4921642886
1.7000000000000002        -3.55                    4204604.6468223855
1.8000000000000003        -3.55                    4518714.029064114
1.9000000000000001        -3.55                    4928252.415962324
2                         -3.55                    5377590.730058144
0                         -3.45                    2956221.7404482127
0.1                       -3.45                    2959206.9999999236
0.2                       -3.45                    2965791.7956395666
0.30000000000000004       -3.45                    2976396.2653288045
0.4                       -3.45                    2993075.1010782244
0.5                       -3.45                    3012148.749418937
0.6000000000000001        -3.45                    3037554.4736928637
0.7000000000000001        -3.45                    3069781.5026899804
0.8                       -3.45                    3104047.969848088
0.9000000000000001        -3.45                    3146953.2359962543
1                         -3.45                    3200537.219392623
1.1                       -3.45                    3262751.7576323515
1.2000000000000002        -3.45                    3326981.093660489
1.3000000000000003        -3.45                    3413833.625196999
1.4000000000000001        -3.45                    3527861.20899455
1.5                       -3.45                    3658274.280438225
1.6                       -3.45                    3846513.326719424
1.7000000000000002        -3.45                    4065331.4886901216
1.8000000000000003        -3.45                    4389791.699802986
1.9000000000000001        -3.45                    4851301.757267895
2                         -3.45                    5439116.639627512
0                         -3.35                    2923914.053558058
0.1                       -3.35                    2926572.091892011
0.2                       -3.35                    2933243.863314906
0.30000000000000004       -3.35                    2943193.349019351
0.4                       -3.35                    2957707.295012425
0.5                       -3.35                    2977064.3253817973
0.6000000000000001        -3.35                    3001168.190494013
0.7000000000000001        -3.35                    3027853.509978226
0.8                       -3.35                    3060735.479973064
0.9000000000000001        -3.35                    3102794.6908350927
1                         -3.35                    3141677.841616667
1.1                       -3.35                    3192126.3520368943
1.2000000000000002        -3.35                    3256092.2132697776
1.3000000000000003        -3.35                    3336013.317304951
1.4000000000000001        -3.35                    3410240.560291763
1.5                       -3.35                    3509486.697984403
1.6                       -3.35                    3646573.6301105926
1.7000000000000002        -3.35                    3869359.065502191
1.8000000000000003        -3.35                    4167489.319896676
1.9000000000000001        -3.35                    4645433.0408741385
2                         -3.35                    5445015.305485902
0                         -3.2500000000000004      2883487.426561906
0.1                       -3.2500000000000004      2886183.2212141785
0.2                       -3.2500000000000004      2892050.769565786
0.30000000000000004       -3.2500000000000004      2901515.840847204
0.4                       -3.2500000000000004      2916463.2793645943
0.5                       -3.2500000000000004      2932782.8342702687
0.6000000000000001        -3.2500000000000004      2954234.6635774686
0.7000000000000001        -3.2500000000000004      2981454.873374563
0.8                       -3.2500000000000004      3008575.2223769426
0.9000000000000001        -3.2500000000000004      3040406.945710926
1                         -3.2500000000000004      3080600.344558242
1.1                       -3.2500000000000004      3119647.172428624
1.2000000000000002        -3.2500000000000004      3161140.723231196
1.3000000000000003        -3.2500000000000004      3211133.501019608
1.4000000000000001        -3.2500000000000004      3266894.2480765437
1.5                       -3.2500000000000004      3337125.9312956575
1.6                       -3.2500000000000004      3420316.182442478
1.7000000000000002        -3.2500000000000004      3530312.7422413793
1.8000000000000003        -3.2500000000000004      3779665.38644635
1.9000000000000001        -3.2500000000000004      4259072.520835034
2                         -3.2500000000000004      5217071.874574209
0                         -3.15                    2835593.2292340854
0.1                       -3.15                    2837949.8050461067
0.2                       -3.15                    2843933.055373694
0.30000000000000004       -3.15                    2852771.7479450833
0.4                       -3.15                    2865393.592956044
0.5                       -3.15                    2882181.9643243984
0.6000000000000001        -3.15                    2902318.619479805
0.7000000000000001        -3.15                    2923966.71333239
0.8                       -3.15                    2949801.4747467465
0.9000000000000001        -3.15                    2979695.1096819397
1                         -3.15                    3005500.52295662
1.1                       -3.15                    3037274.1472064345
1.2000000000000002        -3.15                    3072066.1738083237
1.3000000000000003        -3.15                    3097483.425533055
1.4000000000000001        -3.15                    3120728.6603858736
1.5                       -3.15                    3137026.3130897866
1.6                       -3.15                    3159700.88516244
1.7000000000000002        -3.15                    3175297.3402249184
1.8000000000000003        -3.15                    3266148.664242332
1.9000000000000001        -3.15                    3497631.2518642824
2                         -3.15                    4445740.971702788
0                         -3.05                    2780643.528265941
0.1                       -3.05                    2783042.6190966936
0.2                       -3.05                    2788393.0526772854
0.30000000000000004       -3.05                    2796891.7202960313
0.4                       -3.05                    2810060.432205533
0.5                       -3.05                    2824386.0881699286
0.6000000000000001        -3.05                    2842581.3684565932
0.7000000000000001        -3.05                    2864703.6945659798
0.8                       -3.05                    2886046.292314311
0.9000000000000001        -3.05                    2908977.9614983704
1                         -3.05                    2935099.8373800498
1.1                       -3.05                    2955345.4943050984
1.2000000000000002        -3.05                    2971545.718264293
1.3000000000000003        -3.05                    2985088.460765283
1.4000000000000001        -3.05                    2986003.1484864126
1.5                       -3.05                    2960537.3948788797
1.6                       -3.05                    2904381.3991825534
1.7000000000000002        -3.05                    2813572.123455483
1.8000000000000003        -3.05                    2648789.506138947
1.9000000000000001        -3.05                    2445784.967339438
2                         -3.05                    2695290.895711787
0                         -2.95                    2719179.935624541
0.1                       -2.95                    2721389.2333443062
0.2                       -2.95                    2726874.556872015
0.30000000000000004       -2.95                    2735079.577520686
0.4                       -2.95                    2747102.697685891
0.5                       -2.95                    2761739.912794669
0.6000000000000001        -2.95                    2779300.9685435924
0.7000000000000001        -2.95                    2798484.8931742343
0.8                       -2.95                    2819275.288289272
0.9000000000000001        -2.95                    2840804.7307191184
1                         -2.95                    2859829.1317713754
1.1                       -2.95                    2877637.3876005076
1.2000000000000002        -2.95                    2886311.5390396356
1.3000000000000003        -2.95                    2882895.6948726107
1.4000000000000001        -2.95                    2864589.2988181766
1.5                       -2.95                    2816083.854591846
1.6                       -2.95                    2717881.809828156
1.7000000000000002        -2.95                    2522788.953626486
1.8000000000000003        -2.95                    2206045.8913683547
1.9000000000000001        -2.95                    1617142.9133045431
2                         -2.95                    628207.5438259327
0                         -2.85                    2651466.3987394804
0.1                       -2.85                    2653712.672164435
0.2                       -2.85                    2659005.1289693494
0.30000000000000004       -2.85                    2667226.9126678035
0.4                       -2.85                    2679269.652230501
0.5                       -2.85                    2693603.048682548
0.6000000000000001        -2.85                    2710880.3235289934
0.7000000000000001        -2.85                    2730491.578465382
0.8                       -2.85                    2750483.7387699247
0.9000000000000001        -2.85                    2770703.835407453
1                         -2.85                    2789763.001929568
1.1                       -2.85                    2804757.1859377166
1.2000000000000002        -2.85                    2810200.8588967165
1.3000000000000003        -2.85                    2808661.400859533
1.4000000000000001        -2.85                    2783684.9025731767
1.5                       -2.85                    2735321.098576701
1.6                       -2.85                    2599142.65205683
1.7000000000000002        -2.85                    2434700.2788913925
1.8000000000000003        -2.85                    2143069.045395656
1.9000000000000001        -2.85                    1625976.5594946062
2                         -2.85                    1292695.7245699966
0                         -2.75                    2577736.1760696406
0.1                       -2.75                    2580015.9801275968
0.2                       -2.75                    2585471.6147763403
0.30000000000000004       -2.75                    2593884.104673633
0.4                       -2.75                    2606417.933001457
0.5                       -2.75                    2620977.1978055486
0.6000000000000001        -2.75                    2638714.629478299
0.7000000000000001        -2.75                    2659215.4468530817
0.8                       -2.75                    2679857.8450986277
0.9000000000000001        -2.75                    2700768.9247888085
1                         -2.75                    2723197.4992726925
1.1                       -2.75                    2740190.482962266
1.2000000000000002        -2.75                    2748518.3542388426
1.3000000000000003        -2.75                    2750737.1827371195
1.4000000000000001        -2.75                    2731251.941020426
1.5                       -2.75                    2689472.9981345935
1.6                       -2.75                    2613915.0137541653
1.7000000000000002        -2.75                    2490615.9341737493
1.8000000000000003        -2.75                    2342233.893242757
1.9000000000000001        -2.75                    2172387.182701551
2                         -2.75                    2308952.360148548
0                         -2.65                    2498033.013855252
0.1                       -2.65                    2500347.5154887624
0.2                       -2.65                    2506077.0404647216
0.30000000000000004       -2.65                    2514904.754284391
0.4                       -2.65                    2527830.9694509124
0.5                       -2.65                    2543481.308993097
0.6000000000000001        -2.65                    2562743.4527791296
0.7000000000000001        -2.65                    2583786.3905287976
0.8                       -2.65                    2607412.7147516143
0.9000000000000001        -2.65                    2633030.758476595
1                         -2.65                    2655743.935853593
1.1                       -2.65                    2679001.0794917126
1.2000000000000002        -2.65                    2702001.874952462
1.3000000000000003        -2.65                    2715654.7331602112
1.4000000000000001        -2.65                    2713432.336815244
1.5                       -2.65                    2695995.8089657137
1.6                       -2.65                    2664965.837443308
1.7000000000000002        -2.65                    2630479.752264305
1.8000000000000003        -2.65                    2589830.0385638108
1.9000000000000001        -2.65                    2613260.3004473844
2                         -2.65                    2830121.828946253
0                         -2.55                    2412270.2912048493
0.1                       -2.55                    2414793.458410199
0.2                       -2.55                    2420741.9031691733
0.30000000000000004       -2.55                    2430166.291512119
0.4                       -2.55                    2444361.966501264
0.5                       -2.55                    2460814.0168958986
0.6000000000000001        -2.55                    2481442.7732534846
0.7000000000000001        -2.55                    2506385.5343203167
0.8                       -2.55                    2531901.868616596
0.9000000000000001        -2.55                    2559774.959071092
1                         -2.55                    2593861.552277869
1.1                       -2.55                    2624186.042912759
1.2000000000000002        -2.55                    2651187.8984598117
1.3000000000000003        -2.55                    2682441.119391787
1.4000000000000001        -2.55                    2704032.7947420343
1.5                       -2.55                    2728142.729566591
1.6                       -2.55                    2752245.241314811
1.7000000000000002        -2.55                    2768791.3092753007
1.8000000000000003        -2.55                    2803008.4517382896
1.9000000000000001        -2.55                    2909634.0063761985
2                         -2.55                    3111451.362743807
0                         -2.45                    2320330.210348656
0.1                       -2.45                    2322902.659093521
0.2                       -2.45                    2329371.4693297925
0.30000000000000004       -2.45                    2339473.705359076
0.4                       -2.45                    2354229.6872842982
0.5                       -2.45                    2372628.899571261
0.6000000000000001        -2.45                    2395932.8298047967
0.7000000000000001        -2.45                    2421805.8058836823
0.8                       -2.45                    2452511.061234195
0.9000000000000001        -2.45                    2488765.109180144
1                         -2.45                    2523831.0374762686
1.1                       -2.45                    2565480.322824678
1.2000000000000002        -2.45                    2609057.3699023006
1.3000000000000003        -2.45                    2653570.748099323
1.4000000000000001        -2.45                    2708393.4894610257
1.5                       -2.45                    2762883.53417805
1.6                       -2.45                    2810416.0294142053
1.7000000000000002        -2.45                    2893189.3323764885
1.8000000000000003        -2.45                    2994153.520639978
1.9000000000000001        -2.45                    3132815.930791074
2                         -2.45                    3312221.650211413
0                         -2.3499999999999996      2221985.9295267416
0.1                       -2.3499999999999996      2224798.6435715156
0.2                       -2.3499999999999996      2231581.5231320267
0.30000000000000004       -2.3499999999999996      2242438.199646276
0.4                       -2.3499999999999996      2258714.6261406546
0.5                       -2.3499999999999996      2278283.961500056
0.6000000000000001        -2.3499999999999996      2303281.1969722817
0.7000000000000001        -2.3499999999999996      2333738.5803279383
0.8                       -2.3499999999999996      2366963.2663769214
0.9000000000000001        -2.3499999999999996      2406229.646416127
1                         -2.3499999999999996      2453541.60274997
1.1                       -2.3499999999999996      2503867.8028761786
1.2000000000000002        -2.3499999999999996      2557120.3469246556
1.3000000000000003        -2.3499999999999996      2627588.2560580513
1.4000000000000001        -2.3499999999999996      2699402.5767785655
1.5                       -2.3499999999999996      2777290.5604322255
1.6                       -2.3499999999999996      2882586.179934222
1.7000000000000002        -2.3499999999999996      2998079.1307260715
1.8000000000000003        -2.3499999999999996      3146070.492552292
1.9000000000000001        -2.3499999999999996      3319683.677431206
2                         -2.3499999999999996      3512163.9980593105
0                         -2.2500000000000004      2117114.05774666
0.1                       -2.2500000000000004      2120017.4993192367
0.2                       -2.2500000000000004      2127227.063226389
0.30000000000000004       -2.2500000000000004      2138785.186626698
0.4                       -2.2500000000000004      2155893.4405794833
0.5                       -2.2500000000000004      2177046.9954549866
0.6000000000000001        -2.2500000000000004      2204732.727525796
0.7000000000000001        -2.2500000000000004      2236767.3469188805
0.8                       -2.2500000000000004      2274800.2312200028
0.9000000000000001        -2.2500000000000004      2321710.635974288
1                         -2.2500000000000004      2371613.9887701436
1.1                       -2.2500000000000004      2431766.9239488975
1.2000000000000002        -2.2500000000000004      2505073.4007219747
1.3000000000000003        -2.2500000000000004      2580416.4665351943
1.4000000000000001        -2.2500000000000004      2676962.2386855804
1.5                       -2.2500000000000004      2797737.068971468
1.6                       -2.2500000000000004      2930704.0384046705
1.7000000000000002        -2.2500000000000004      3096370.5275621875
1.8000000000000003        -2.2500000000000004      3274565.8319871975
1.9000000000000001        -2.2500000000000004      3500650.546232174
2                         -2.2500000000000004      3735269.4325395534
0                         -2.15                    2005622.3755395128
0.1                       -2.15                    2008637.4287321975
0.2                       -2.15                    2016294.2314265047
0.30000000000000004       -2.15                    2028502.7815315693
0.4                       -2.15                    2046479.6956710995
0.5                       -2.15                    2069190.2885407729
0.6000000000000001        -2.15                    2098342.167891777
0.7000000000000001        -2.15                    2133151.698285754
0.8                       -2.15                    2173657.5257278197
0.9000000000000001        -2.15                    2223639.2217334993
1                         -2.15                    2281359.2483734167
1.1                       -2.15                    2350665.1200287603
1.2000000000000002        -2.15                    2425926.082222663
1.3000000000000003        -2.15                    2521671.629660707
1.4000000000000001        -2.15                    2639986.919573884
1.5                       -2.15                    2767423.2231637575
1.6                       -2.15                    2941712.219577753
1.7000000000000002        -2.15                    3155099.0795649528
1.8000000000000003        -2.15                    3391139.0740900603
1.9000000000000001        -2.15                    3674395.2059288905
2                         -2.15                    3980647.5937043894
0                         -2.05                    1887552.9114448836
0.1                       -2.05                    1890724.935650654
0.2                       -2.05                    1898444.2261973906
0.30000000000000004       -2.05                    1911176.3051578233
0.4                       -2.05                    1930343.019529766
0.5                       -2.05                    1953362.5286273216
0.6000000000000001        -2.05                    1984139.5392120467
0.7000000000000001        -2.05                    2021386.826965396
0.8                       -2.05                    2064404.4844400557
0.9000000000000001        -2.05                    2118290.9621815155
1                         -2.05                    2180579.273314427
1.1                       -2.05                    2253052.089019097
1.2000000000000002        -2.05                    2341503.5593416067
1.3000000000000003        -2.05                    2452471.771795018
1.4000000000000001        -2.05                    2573844.874737693
1.5                       -2.05                    2734092.9338649707
1.6                       -2.05                    2936122.897721852
1.7000000000000002        -2.05                    3177257.4008961488
1.8000000000000003        -2.05                    3472927.380701774
1.9000000000000001        -2.05                    3833415.8917421927
2                         -2.05                    4248969.89609809
0                         -1.95                    1763174.1977741776
0.1                       -1.95                    1766241.4471349188
0.2                       -1.95                    1774568.5557231556
0.30000000000000004       -1.95                    1787719.4010402153
0.4                       -1.95                    1806605.9903149642
0.5                       -1.95                    1831528.809804658
0.6000000000000001        -1.95                    1863365.392149829
0.7000000000000001        -1.95                    1900142.2534852861
0.8                       -1.95                    1944976.1203041873
0.9000000000000001        -1.95                    2001612.1607156459
1                         -1.95                    2063556.2051238941
1.1                       -1.95                    2142898.8812728226
1.2000000000000002        -1.95                    2237149.0212930455
1.3000000000000003        -1.95                    2342439.421666388
1.4000000000000001        -1.95                    2487501.202537275
1.5                       -1.95                    2661386.699043338
1.6                       -1.95                    2889221.2136846874
1.7000000000000002        -1.95                    3155129.0506152897
1.8000000000000003        -1.95                    3512342.219272754
1.9000000000000001        -1.95                    3965356.0404186677
2                         -1.95                    4574810.414181129
0                         -1.8499999999999999      1632791.8504641787
0.1                       -1.8499999999999999      1636095.9560587963
0.2                       -1.8499999999999999      1644077.3421116073
0.30000000000000004       -1.8499999999999999      1657549.8069925073
0.4                       -1.8499999999999999      1678032.3038975783
0.5                       -1.8499999999999999      1701875.6411144857
0.6000000000000001        -1.8499999999999999      1733856.818709754
0.7000000000000001        -1.8499999999999999      1773953.0107245676
0.8                       -1.8499999999999999      1818537.0905304695
0.9000000000000001        -1.8499999999999999      1872303.3854109636
1                         -1.8499999999999999      1941702.9432022348
1.1                       -1.8499999999999999      2016443.3690777412
1.2000000000000002        -1.8499999999999999      2109365.2329919776
1.3000000000000003        -1.8499999999999999      2233372.369117163
1.4000000000000001        -1.8499999999999999      2373602.3801894863
1.5                       -1.8499999999999999      2557668.460362807
1.6                       -1.8499999999999999      2759623.879157512
1.7000000000000002        -1.8499999999999999      3084722.546325627
1.8000000000000003        -1.8499999999999999      3495267.5904293284
1.9000000000000001        -1.8499999999999999      4036312.8483865554
2                         -1.8499999999999999      4851601.181401787
0                         -1.75                    1497095.917438714
0.1                       -1.75                    1500117.5454821624
0.2                       -1.75                    1508891.6675736995
0.30000000000000004       -1.75                    1522646.595356618
0.4                       -1.75                    1541907.9074695797
0.5                       -1.75                    1567961.9289547754