% Model:              ring_decel_osterwalder.mph
% Version:            COMSOL 5.4.0.225
% Date:               Mar 19 2019, 15:37
% Dimension:          2
% Nodes:              1281
% Expressions:        1
% Description:        Electric field norm
% Length unit:        mm
% r                       z                        es.normE (V/m) @ ph=0.62832
0                         -3                       2411453.3397547416
0.1                       -3                       2411086.081276713
0.2                       -3                       2416756.590536403
0.30000000000000004       -3                       2425588.6073241755
0.4                       -3                       2438652.2468602457
0.5                       -3                       2454385.139947941
0.6000000000000001        -3                       2473836.0427900115
0.7000000000000001        -3                       2496005.9763819478
0.8                       -3                       2519656.4004310775
0.9000000000000001        -3                       2546199.205055795
1                         -3                       2573776.432148425
1.1                       -3                       2598562.227058594
1.2000000000000002        -3                       2622259.83068985
1.3000000000000003        -3                       2642571.1201725407
1.4000000000000001        -3                       2648466.400119553
1.5                       -3                       2636821.9786855355
1.6                       -3                       2625240.044889019
1.7000000000000002        -3                       2560628.9623860484
1.8000000000000003        -3                       2463081.427457026
1.9000000000000001        -3                       2349775.7732289047
2                         -3                       7.450580596923828E-8
0                         -2.9                     2311963.7696516993
0.1                       -2.9                     2314662.0302221384
0.2                       -2.9                     2319424.74637619
0.30000000000000004       -2.9                     2328436.6604487123
0.4                       -2.9                     2341121.8272713544
0.5                       -2.9                     2356246.4639453716
0.6000000000000001        -2.9                     2374697.3481176873
0.7000000000000001        -2.9                     2395400.731473057
0.8                       -2.9                     2418783.966828463
0.9000000000000001        -2.9                     2440763.199012343
1                         -2.9                     2462837.2969131917
1.1                       -2.9                     2481719.0581510616
1.2000000000000002        -2.9                     2496755.543943435
1.3000000000000003        -2.9                     2501916.9399796063
1.4000000000000001        -2.9                     2485247.5721104685
1.5                       -2.9                     2451780.819825345
1.6                       -2.9                     2379764.7126654065
1.7000000000000002        -2.9                     2249710.7288129022
1.8000000000000003        -2.9                     1983876.2586529583
1.9000000000000001        -2.9                     1528147.7832223175
2                         -2.9                     846302.8553441821
0                         -2.8                     2209170.4489066037
0.1                       -2.8                     2212243.9477222855
0.2                       -2.8                     2217775.934379011
0.30000000000000004       -2.8                     2226443.2024264033
0.4                       -2.8                     2239027.0663504857
0.5                       -2.8                     2254149.6202348797
0.6000000000000001        -2.8                     2272487.0603251266
0.7000000000000001        -2.8                     2292807.0853932803
0.8                       -2.8                     2314228.854557836
0.9000000000000001        -2.8                     2336466.2555179168
1                         -2.8                     2357365.6874467516
1.1                       -2.8                     2374561.931044737
1.2000000000000002        -2.8                     2384947.4434940745
1.3000000000000003        -2.8                     2380562.0124143073
1.4000000000000001        -2.8                     2359003.09907716
1.5                       -2.8                     2311857.854276377
1.6                       -2.8                     2219828.8803050546
1.7000000000000002        -2.8                     2059980.836115922
1.8000000000000003        -2.8                     1778938.8774655634
1.9000000000000001        -2.8                     1374061.1944194967
2                         -2.8                     828070.9685699157
0                         -2.7                     2103234.9750277144
0.1                       -2.7                     2105905.0013592993
0.2                       -2.7                     2110878.513308232
0.30000000000000004       -2.7                     2120150.2272340306
0.4                       -2.7                     2133098.4224335067
0.5                       -2.7                     2148576.92260043
0.6000000000000001        -2.7                     2167388.595389258
0.7000000000000001        -2.7                     2188279.4568208163
0.8                       -2.7                     2210775.6415428324
0.9000000000000001        -2.7                     2233203.1492265314
1                         -2.7                     2254604.6743621854
1.1                       -2.7                     2270770.469929518
1.2000000000000002        -2.7                     2283258.921751146
1.3000000000000003        -2.7                     2281623.0717787375
1.4000000000000001        -2.7                     2267488.917718901
1.5                       -2.7                     2225941.0916391993
1.6                       -2.7                     2143734.4923550435
1.7000000000000002        -2.7                     2004878.2588995723
1.8000000000000003        -2.7                     1813541.5459900773
1.9000000000000001        -2.7                     1600038.4488218215
2                         -2.7                     1485599.330579615
0                         -2.6000000000000005      1994095.4731930704
0.1                       -2.6000000000000005      1994135.2611955178
0.2                       -2.6000000000000005      2000106.708867881
0.30000000000000004       -2.6000000000000005      2009514.0223933894
0.4                       -2.6000000000000005      2023156.4460598147
0.5                       -2.6000000000000005      2039725.0590858466
0.6000000000000001        -2.6000000000000005      2059746.4007859363
0.7000000000000001        -2.6000000000000005      2082262.8734076475
0.8                       -2.6000000000000005      2106590.791544874
0.9000000000000001        -2.6000000000000005      2131983.79137081
1                         -2.6000000000000005      2156442.9419166204
1.1                       -2.6000000000000005      2179538.53049881
1.2000000000000002        -2.6000000000000005      2195760.9122690195
1.3000000000000003        -2.6000000000000005      2204532.008232916
1.4000000000000001        -2.6000000000000005      2205096.6833150606
1.5                       -2.6000000000000005      2176250.8352993205
1.6                       -2.6000000000000005      2121700.6514510503
1.7000000000000002        -2.6000000000000005      2043038.92819649
1.8000000000000003        -2.6000000000000005      1948857.56657931
1.9000000000000001        -2.6000000000000005      1863893.319393009
2                         -2.6000000000000005      1856024.7230030613
0                         -2.5                     1875697.6487378315
0.1                       -2.5                     1878605.3105538343
0.2                       -2.5                     1884255.5048457237
0.30000000000000004       -2.5                     1894773.8722018606
0.4                       -2.5                     1909493.503208508
0.5                       -2.5                     1927121.6881058388
0.6000000000000001        -2.5                     1949348.324593424
0.7000000000000001        -2.5                     1974338.2200138264
0.8                       -2.5                     2001457.7971460524
0.9000000000000001        -2.5                     2031243.2546289542
1                         -2.5                     2061934.4433355052
1.1                       -2.5                     2091946.9255707392
1.2000000000000002        -2.5                     2119960.866199536
1.3000000000000003        -2.5                     2138210.2692832933
1.4000000000000001        -2.5                     2154934.9833769426
1.5                       -2.5                     2148687.0985530443
1.6                       -2.5                     2145296.8567565135
1.7000000000000002        -2.5                     2124867.053235767
1.8000000000000003        -2.5                     2096966.9226853845
1.9000000000000001        -2.5                     2088312.908957187
2                         -2.5                     2123197.627245267
0                         -2.4                     1754059.4342470523
0.1                       -2.4                     1757606.7372630357
0.2                       -2.4                     1764532.3290815048
0.30000000000000004       -2.4                     1775512.0146945613
0.4                       -2.4                     1791550.6277464712
0.5                       -2.4                     1811343.000035902
0.6000000000000001        -2.4                     1835547.5428778785
0.7000000000000001        -2.4                     1863595.558192001
0.8                       -2.4                     1895154.7615684567
0.9000000000000001        -2.4                     1930030.4408792502
1                         -2.4                     1965779.5218257208
1.1                       -2.4                     2006332.643935369
1.2000000000000002        -2.4                     2046472.1025790863
1.3000000000000003        -2.4                     2084227.463470226
1.4000000000000001        -2.4                     2114145.3655543756
1.5                       -2.4                     2156238.1369952997
1.6                       -2.4                     2186508.521991472
1.7000000000000002        -2.4                     2210253.814854809
1.8000000000000003        -2.4                     2246450.691835373
1.9000000000000001        -2.4                     2296273.8923635827
2                         -2.4                     2364427.660756068
0                         -2.3                     1629392.6497427428
0.1                       -2.3                     1632705.4748705055
0.2                       -2.3                     1639422.7677340594
0.30000000000000004       -2.3                     1651915.054429311
0.4                       -2.3                     1669501.3693738054
0.5                       -2.3                     1690626.0653873691
0.6000000000000001        -2.3                     1718311.8417803333
0.7000000000000001        -2.3                     1750001.1965231244
0.8                       -2.3                     1784863.8787457687
0.9000000000000001        -2.3                     1826765.8230316637
1                         -2.3                     1871895.5681117473
1.1                       -2.3                     1919258.5811957584
1.2000000000000002        -2.3                     1973506.2375230596
1.3000000000000003        -2.3                     2029298.3349242124
1.4000000000000001        -2.3                     2090223.142382908
1.5                       -2.3                     2154747.280958509
1.6                       -2.3                     2226665.428938837
1.7000000000000002        -2.3                     2302351.87740429
1.8000000000000003        -2.3                     2395279.2324689087
1.9000000000000001        -2.3                     2498325.7997766803
2                         -2.3                     2629779.7198581593
0                         -2.2                     1498086.2779821765
0.1                       -2.2                     1502097.9275270018
0.2                       -2.2                     1510307.406253309
0.30000000000000004       -2.2                     1523432.3559899793
0.4                       -2.2                     1542655.1195439112
0.5                       -2.2                     1566670.2128990344
0.6000000000000001        -2.2                     1596493.731120854
0.7000000000000001        -2.2                     1631724.666897127
0.8                       -2.2                     1672450.4732619128
0.9000000000000001        -2.2                     1719479.800025442
1                         -2.2                     1771075.619927989
1.1                       -2.2                     1832046.28876971
1.2000000000000002        -2.2                     1897538.2492561475
1.3000000000000003        -2.2                     1975240.7240058458
1.4000000000000001        -2.2                     2059047.5380250171
1.5                       -2.2                     2150506.289271612
1.6                       -2.2                     2267914.7407713016
1.7000000000000002        -2.2                     2390428.2297027055
1.8000000000000003        -2.2                     2542545.653957594
1.9000000000000001        -2.2                     2710098.6171021312
2                         -2.2                     2897889.9136293544
0                         -2.1                     1363736.6342778401
0.1                       -2.1                     1367498.1685157898
0.2                       -2.1                     1375599.861168743
0.30000000000000004       -2.1                     1390469.0662387232
0.4                       -2.1                     1411485.327220894
0.5                       -2.1                     1436910.8810933388
0.6000000000000001        -2.1                     1470686.833147832
0.7000000000000001        -2.1                     1509880.102741539
0.8                       -2.1                     1553717.4482483447
0.9000000000000001        -2.1                     1608222.9342642985
1                         -2.1                     1668659.1850793322
1.1                       -2.1                     1734662.5953975066
1.2000000000000002        -2.1                     1816798.769954759
1.3000000000000003        -2.1                     1908700.84109772
1.4000000000000001        -2.1                     2006503.9656866216
1.5                       -2.1                     2146460.5576170543
1.6                       -2.1                     2284100.259752587
1.7000000000000002        -2.1                     2464075.7472624397
1.8000000000000003        -2.1                     2672698.473623566
1.9000000000000001        -2.1                     2923906.7084296215
2                         -2.1                     3211224.4254118335
0                         -2                       1222862.9427647963
0.1                       -2                       1227296.5738861917
0.2                       -2                       1237026.2331700309
0.30000000000000004       -2                       1252746.908740811
0.4                       -2                       1275583.2081156438
0.5                       -2                       1304243.947334783
0.6000000000000001        -2                       1340226.7126017716
0.7000000000000001        -2                       1382800.429211236
0.8                       -2                       1432402.8122881777
0.9000000000000001        -2                       1491356.77473512
1                         -2                       1556993.0370934405
1.1                       -2                       1635909.5978059191
1.2000000000000002        -2                       1727202.0156236782
1.3000000000000003        -2                       1831953.1766418405
1.4000000000000001        -2                       1964759.2683830967
1.5                       -2                       2108566.9523704983
1.6                       -2                       2289330.805434057
1.7000000000000002        -2                       2505680.0620693294
1.8000000000000003        -2                       2793724.854640476
1.9000000000000001        -2                       3130799.3176703854
2                         -2                       3541698.2977336766
0                         -1.9                     1079199.7053710003
0.1                       -1.9                     1083427.426262844
0.2                       -1.9                     1093369.0907822892
0.30000000000000004       -1.9                     1111068.0016957514
0.4                       -1.9                     1136050.313784534
0.5                       -1.9                     1166644.176276324
0.6000000000000001        -1.9                     1206480.1178002926
0.7000000000000001        -1.9                     1253046.0557814965
0.8                       -1.9                     1305943.4394784202
0.9000000000000001        -1.9                     1370514.7882237132
1                         -1.9                     1443510.6671528358
1.1                       -1.9                     1533648.118493849
1.2000000000000002        -1.9                     1627024.7315601478
1.3000000000000003        -1.9                     1742821.7945574012
1.4000000000000001        -1.9                     1883192.0799909446
1.5                       -1.9                     2055735.1029284638
1.6                       -1.9                     2262371.9339232976
1.7000000000000002        -1.9                     2545320.846211232
1.8000000000000003        -1.9                     2874605.0726894485
1.9000000000000001        -1.9                     3322662.8371485975
2                         -1.9                     3889670.524772848
0                         -1.8                     929946.6712736516
0.1                       -1.8                     934820.3346710948
0.2                       -1.8                     946625.1265090252
0.30000000000000004       -1.8                     965891.6917269421
0.4                       -1.8                     993298.3637573891
0.5                       -1.8                     1027514.1190602747
0.6000000000000001        -1.8                     1070456.1683732253
0.7000000000000001        -1.8                     1120598.5092108643
0.8                       -1.8                     1178189.9885620002
0.9000000000000001        -1.8                     1247409.2330636608
1                         -1.8                     1326925.5912501332
1.1                       -1.8                     1415629.4406177718
1.2000000000000002        -1.8                     1520905.7449473608
1.3000000000000003        -1.8                     1647215.5330433978
1.4000000000000001        -1.8                     1797198.9734647146
1.5                       -1.8                     1980998.3071577603
1.6                       -1.8                     2217034.981223297
1.7000000000000002        -1.8                     2514229.1777882907
1.8000000000000003        -1.8                     2926133.056308897
1.9000000000000001        -1.8                     3476239.3875937783
2                         -1.8                     4251003.295966396
0                         -1.7                     778538.1039910887
0.1                       -1.7                     783500.7326072156
0.2                       -1.7                     796482.0922149061
0.30000000000000004       -1.7                     818565.9601216849
0.4                       -1.7                     849370.9667436528
0.5                       -1.7                     887442.3568640371
0.6000000000000001        -1.7                     934501.2437570494
0.7000000000000001        -1.7                     989271.75148562
0.8                       -1.7                     1051889.609953997
0.9000000000000001        -1.7                     1124502.768258462
1                         -1.7                     1205625.7367639446
1.1                       -1.7                     1303708.3581400248
1.2000000000000002        -1.7                     1411350.028898426
1.3000000000000003        -1.7                     1543795.0110699576
1.4000000000000001        -1.7                     1697783.6078350625
1.5                       -1.7                     1892770.9386694252
1.6                       -1.7                     2125710.338559907
1.7000000000000002        -1.7                     2465928.6616986175
1.8000000000000003        -1.7                     2898728.4782549185
1.9000000000000001        -1.7                     3522787.2810805608
2                         -1.7                     4446338.202857849
0                         -1.5999999999999999      623345.1256422261
0.1                       -1.5999999999999999      629225.585073879
0.2                       -1.5999999999999999      645113.6757947099
0.30000000000000004       -1.5999999999999999      671006.7017350938
0.4                       -1.5999999999999999      706481.2987209397
0.5                       -1.5999999999999999      749776.1552087311
0.6000000000000001        -1.5999999999999999      802862.6046739237
0.7000000000000001        -1.5999999999999999      863066.2814918555
0.8                       -1.5999999999999999      929504.6485270759
0.9000000000000001        -1.5999999999999999      1008230.3441394458
1                         -1.5999999999999999      1092105.529492517
1.1                       -1.5999999999999999      1193606.5144337248
1.2000000000000002        -1.5999999999999999      1296448.9382883466
1.3000000000000003        -1.5999999999999999      1437175.0015898042
1.4000000000000001        -1.5999999999999999      1595391.0043672794
1.5                       -1.5999999999999999      1782712.595502582
1.6                       -1.5999999999999999      2038076.0919660777
1.7000000000000002        -1.5999999999999999      2359758.790891539
1.8000000000000003        -1.5999999999999999      2817922.3775328933
1.9000000000000001        -1.5999999999999999      3472033.8179414887
2                         -1.5999999999999999      4510713.842696853
0                         -1.5                     466940.201125051
0.1                       -1.5                     474009.2162858661
0.2                       -1.5                     494066.95258731017
0.30000000000000004       -1.5                     526151.270894966
0.4                       -1.5                     569096.1361809515
0.5                       -1.5                     620972.6786052857
0.6000000000000001        -1.5                     680251.9289757601
0.7000000000000001        -1.5                     747079.427920943
0.8                       -1.5                     821603.5964563128
0.9000000000000001        -1.5                     903136.7971899058
1                         -1.5                     990706.1854398887
1.1                       -1.5                     1094454.1097708265
1.2000000000000002        -1.5                     1205290.364624204
1.3000000000000003        -1.5                     1339833.7659777573
1.4000000000000001        -1.5                     1494016.8367048684
1.5                       -1.5                     1684325.5794162985
1.6                       -1.5                     1923175.8520541477
1.7000000000000002        -1.5                     2232671.5664156843
1.8000000000000003        -1.5                     2667828.605358954
1.9000000000000001        -1.5                     3298059.8180111498
2                         -1.5                     1.6049041769309353E-7
0                         -1.4                     309054.2858754422
0.1                       -1.4                     319148.13544323086
0.2                       -1.4                     347572.2246700825
0.30000000000000004       -1.4                     391032.71052281547
0.4                       -1.4                     445406.9247299208
0.5                       -1.4                     507147.00318510376
0.6000000000000001        -1.4                     577309.7582967822
0.7000000000000001        -1.4                     652248.7614852554
0.8                       -1.4                     730410.9132361517
0.9000000000000001        -1.4                     818849.3452999148
1                         -1.4                     912063.4230607569
1.1                       -1.4                     1009666.094150533
1.2000000000000002        -1.4                     1126599.1128509368
1.3000000000000003        -1.4                     1248742.5517816623
1.4000000000000001        -1.4                     1400301.4862454436
1.5                       -1.4                     1581307.4008868653
1.6                       -1.4                     1799960.2022093937
1.7000000000000002        -1.4                     2089643.0707208328
1.8000000000000003        -1.4                     2477415.8019156875
1.9000000000000001        -1.4                     3025522.0763126346
2                         -1.4                     3824909.47597405
0                         -1.3                     150988.96354599335
0.1                       -1.3                     170264.66952097486
0.2                       -1.3                     218578.40110289666
0.30000000000000004       -1.3                     281248.80119496526
0.4                       -1.3                     351955.76171755843
0.5                       -1.3                     427377.35480453813
0.6000000000000001        -1.3                     505280.60016063025
0.7000000000000001        -1.3                     587038.8462337009
0.8                       -1.3                     670635.8220224141
0.9000000000000001        -1.3                     761402.4796128668
1                         -1.3                     853859.0452154456
1.1                       -1.3                     958072.9029481745
1.2000000000000002        -1.3                     1066608.3701440766
1.3000000000000003        -1.3                     1179104.7457355727
1.4000000000000001        -1.3                     1323352.0002721108
1.5                       -1.3                     1491490.163115577
1.6                       -1.3                     1688641.1208983073
1.7000000000000002        -1.3                     1923702.4172040357
1.8000000000000003        -1.3                     2266326.538043746
1.9000000000000001        -1.3                     2720209.6777623976
2                         -1.3                     3374478.38205762
0                         -1.2                     6369.305380654792
0.1                       -1.2                     78958.4422122238
0.2                       -1.2                     157594.11344305915
0.30000000000000004       -1.2                     237072.09581527754
0.4                       -1.2                     317089.47842807387
0.5                       -1.2                     397397.9023510692
0.6000000000000001        -1.2                     480457.01993942796
0.7000000000000001        -1.2                     564475.3557084539
0.8                       -1.2                     649124.9633801015
0.9000000000000001        -1.2                     739410.152242266
1                         -1.2                     832148.3571822118
1.1                       -1.2                     927523.135388774
1.2000000000000002        -1.2                     1033149.8577318196
1.3000000000000003        -1.2                     1138665.9236768598
1.4000000000000001        -1.2                     1274001.8463313398
1.5                       -1.2                     1414707.2733464565
1.6                       -1.2                     1571020.8898292375
1.7000000000000002        -1.2                     1799798.7361711655
1.8000000000000003        -1.2                     2070196.0321296689
1.9000000000000001        -1.2                     2429907.9402500815
2                         -1.2                     2927928.687920488
0                         -1.0999999999999999      163047.77378589084
0.1                       -1.0999999999999999      181349.64496360155
0.2                       -1.0999999999999999      226926.19425213023
0.30000000000000004       -1.0999999999999999      287716.734049917
0.4                       -1.0999999999999999      356662.67438212596
0.5                       -1.0999999999999999      429805.1513527413
0.6000000000000001        -1.0999999999999999      506461.5147400846
0.7000000000000001        -1.0999999999999999      585738.0598023804
0.8                       -1.0999999999999999      667233.9927501696
0.9000000000000001        -1.0999999999999999      751795.1857859445
1                         -1.0999999999999999      838352.5282752301
1.1                       -1.0999999999999999      929427.1863552099
1.2000000000000002        -1.0999999999999999      1025181.6535921888
1.3000000000000003        -1.0999999999999999      1127825.4925484238
1.4000000000000001        -1.0999999999999999      1237155.0556026278
1.5                       -1.0999999999999999      1352149.3825482046
1.6                       -1.0999999999999999      1498806.4161925178
1.7000000000000002        -1.0999999999999999      1665252.7844136942
1.8000000000000003        -1.0999999999999999      1871727.1660515836
1.9000000000000001        -1.0999999999999999      2140553.315702743
2                         -1.0999999999999999      2490467.972210113
0                         -1                       317484.9168910124
0.1                       -1                       327695.3231761815
0.2                       -1                       355227.35309610347
0.30000000000000004       -1                       396935.26686642296
0.4                       -1                       449498.855246287
0.5                       -1                       509386.46474937454