% Model:              ring_decel_osterwalder.mph
% Version:            COMSOL 5.4.0.225
% Date:               Mar 20 2019, 06:43
% Dimension:          2
% Nodes:              1281
% Expressions:        1
% Description:        Electric field norm
% Length unit:        mm
% r                       z                        es.normE (V/m) @ ph=0.5236
0                         -4                       2995771.951129747
0.1                       -4                       3000205.8586455076
0.2                       -4                       3006947.914202688
0.30000000000000004       -4                       3017212.965410775
0.4                       -4                       3033309.7159879957
0.5                       -4                       3052977.9575998574
0.6000000000000001        -4                       3077979.2384982263
0.7000000000000001        -4                       3108648.435046058
0.8                       -4                       3143789.1914021266
0.9000000000000001        -4                       3186661.8410888896
1                         -4                       3237305.279938641
1.1                       -4                       3293961.671473659
1.2000000000000002        -4                       3363606.0752146738
1.3000000000000003        -4                       3447932.307023429
1.4000000000000001        -4                       3549829.441820954
1.5                       -4                       3673927.8659292553
1.6                       -4                       3846293.263413114
1.7000000000000002        -4                       4058475.4608752476
1.8000000000000003        -4                       4337037.381716235
1.9000000000000001        -4                       4714283.267674793
2                         -4                       5185678.927999845
0                         -3.9                     2994566.0324264695
0.1                       -3.9                     2998366.987062102
0.2                       -3.9                     3003933.8090022537
0.30000000000000004       -3.9                     3015497.2480220017
0.4                       -3.9                     3032409.3571471376
0.5                       -3.9                     3052161.0282927225
0.6000000000000001        -3.9                     3079730.1357256523
0.7000000000000001        -3.9                     3112569.5100196954
0.8                       -3.9                     3148924.298994754
0.9000000000000001        -3.9                     3197635.1426753956
1                         -3.9                     3253233.0363092143
1.1                       -3.9                     3315321.136612844
1.2000000000000002        -3.9                     3399025.7692261892
1.3000000000000003        -3.9                     3494169.0925519816
1.4000000000000001        -3.9                     3621783.4359640125
1.5                       -3.9                     3765482.8070424288
1.6                       -3.9                     3949595.9173806207
1.7000000000000002        -3.9                     4171579.9196113087
1.8000000000000003        -3.9                     4478199.605471124
1.9000000000000001        -3.9                     4796310.499680696
2                         -3.9                     5175334.32613226
0                         -3.8                     2981203.4660893194
0.1                       -3.8                     2985930.8994244453
0.2                       -3.8                     2993155.7684644917
0.30000000000000004       -3.8                     3004167.520489751
0.4                       -3.8                     3021577.222745927
0.5                       -3.8                     3043022.2320852056
0.6000000000000001        -3.8                     3070486.063397057
0.7000000000000001        -3.8                     3104697.400303338
0.8                       -3.8                     3144564.341480247
0.9000000000000001        -3.8                     3194299.11073437
1                         -3.8                     3252878.9231402026
1.1                       -3.8                     3321639.0555645623
1.2000000000000002        -3.8                     3408250.910238456
1.3000000000000003        -3.8                     3519409.5746982507
1.4000000000000001        -3.8                     3644187.844179327
1.5                       -3.8                     3804445.673996887
1.6                       -3.8                     4003440.4187987624
1.7000000000000002        -3.8                     4235936.098742081
1.8000000000000003        -3.8                     4526929.722003871
1.9000000000000001        -3.8                     4859282.820140647
2                         -3.8                     5201559.560690129
0                         -3.7                     2961989.3145051654
0.1                       -3.7                     2965908.794372477
0.2                       -3.7                     2971684.7894349233
0.30000000000000004       -3.7                     2983696.6729840287
0.4                       -3.7                     3001316.6653941693
0.5                       -3.7                     3021885.7919632923
0.6000000000000001        -3.7                     3050980.796728017
0.7000000000000001        -3.7                     3085764.89134978
0.8                       -3.7                     3123740.524215921
0.9000000000000001        -3.7                     3177209.844584655
1                         -3.7                     3237610.693460283
1.1                       -3.7                     3317217.644753853
1.2000000000000002        -3.7                     3400047.79932798
1.3000000000000003        -3.7                     3508128.335797913
1.4000000000000001        -3.7                     3639315.5998824295
1.5                       -3.7                     3802678.3951588036
1.6                       -3.7                     4012098.1515521132
1.7000000000000002        -3.7                     4261169.508592031
1.8000000000000003        -3.7                     4560662.3845338365
1.9000000000000001        -3.7                     4903255.17293846
2                         -3.7                     5262222.782975094
0                         -3.6000000000000005      2930329.99493552
0.1                       -3.6000000000000005      2935022.4191612783
0.2                       -3.6000000000000005      2942252.4107653215
0.30000000000000004       -3.6000000000000005      2953300.1058355896
0.4                       -3.6000000000000005      2970712.8479646463
0.5                       -3.6000000000000005      2992180.3182821837
0.6000000000000001        -3.6000000000000005      3019758.4068174404
0.7000000000000001        -3.6000000000000005      3053963.8095338256
0.8                       -3.6000000000000005      3093744.788782623
0.9000000000000001        -3.6000000000000005      3144106.7056616694
1                         -3.6000000000000005      3202000.8069348843
1.1                       -3.6000000000000005      3273860.612742991
1.2000000000000002        -3.6000000000000005      3360394.030374069
1.3000000000000003        -3.6000000000000005      3470746.56296732
1.4000000000000001        -3.6000000000000005      3591873.5261685997
1.5                       -3.6000000000000005      3765819.5044754464
1.6                       -3.6000000000000005      3973683.5056938096
1.7000000000000002        -3.6000000000000005      4248424.350145269
1.8000000000000003        -3.6000000000000005      4559783.390309771
1.9000000000000001        -3.6000000000000005      4937820.639471491
2                         -3.6000000000000005      5361755.102217945
0                         -3.5                     2892916.914790504
0.1                       -3.5                     2896675.9638761953
0.2                       -3.5                     2902296.7078704033
0.30000000000000004       -3.5                     2913894.3821684583
0.4                       -3.5                     2930847.0496417955
0.5                       -3.5                     2950651.657433038
0.6000000000000001        -3.5                     2978398.648352065
0.7000000000000001        -3.5                     3011349.5500268126
0.8                       -3.5                     3055503.2970742253
0.9000000000000001        -3.5                     3097408.5646388633
1                         -3.5                     3153085.8171734675
1.1                       -3.5                     3217103.0661714384
1.2000000000000002        -3.5                     3307617.520686263
1.3000000000000003        -3.5                     3402704.233969092
1.4000000000000001        -3.5                     3525408.0073282598
1.5                       -3.5                     3683492.0982483495
1.6                       -3.5                     3879426.9582930156
1.7000000000000002        -3.5                     4152601.4084327254
1.8000000000000003        -3.5                     4511720.146956161
1.9000000000000001        -3.5                     4947352.120410471
2                         -3.5                     5483876.853384952
0                         -3.4                     2849419.772402818
0.1                       -3.4                     2848068.7931397664
0.2                       -3.4                     2854836.240159738
0.30000000000000004       -3.4                     2865209.7527963384
0.4                       -3.4                     2881353.9159910856
0.5                       -3.4                     2901124.7928555408
0.6000000000000001        -3.4                     2926393.6857440476
0.7000000000000001        -3.4                     2957249.4076825115
0.8                       -3.4                     2992318.924741945
0.9000000000000001        -3.4                     3036376.3461375637
1                         -3.4                     3087733.9009976364
1.1                       -3.4                     3147003.925888428
1.2000000000000002        -3.4                     3215742.2530512144
1.3000000000000003        -3.4                     3307095.151793014
1.4000000000000001        -3.4                     3414483.8092554025
1.5                       -3.4                     3549544.270944147
1.6                       -3.4                     3727850.215690495
1.7000000000000002        -3.4                     3986013.5200892
1.8000000000000003        -3.4                     4349966.486377894
1.9000000000000001        -3.4                     4828046.013558396
2                         -3.4                     5587176.909312635
0                         -3.3                     2789303.1296568923
0.1                       -3.3                     2792694.4944269275
0.2                       -3.3                     2797900.738483795
0.30000000000000004       -3.3                     2808439.1833475707
0.4                       -3.3                     2823699.3123629964
0.5                       -3.3                     2841619.3015820524
0.6000000000000001        -3.3                     2865753.309168983
0.7000000000000001        -3.3                     2893989.155668289
0.8                       -3.3                     2930729.1249540886
0.9000000000000001        -3.3                     2965235.070569034
1                         -3.3                     3008251.4196124
1.1                       -3.3                     3059768.1321362155
1.2000000000000002        -3.3                     3124304.8922648225
1.3000000000000003        -3.3                     3185134.287288463
1.4000000000000001        -3.3                     3270939.497122145
1.5                       -3.3                     3372048.938924544
1.6                       -3.3                     3515193.319058877
1.7000000000000002        -3.3                     3723156.3360658353
1.8000000000000003        -3.3                     4058652.962262206
1.9000000000000001        -3.3                     4624300.179552826
2                         -3.3                     5553369.332701668
0                         -3.2                     2724512.6611424726
0.1                       -3.2                     2728320.5759140835
0.2                       -3.2                     2734400.1510855216
0.30000000000000004       -3.2                     2743752.58873134
0.4                       -3.2                     2758002.2379717217
0.5                       -3.2                     2775239.2813127995
0.6000000000000001        -3.2                     2796931.8940495253
0.7000000000000001        -3.2                     2822635.4156735917
0.8                       -3.2                     2850789.363899943
0.9000000000000001        -3.2                     2884406.715817703
1                         -3.2                     2923093.7114676633
1.1                       -3.2                     2961071.0667436384
1.2000000000000002        -3.2                     3003152.1343665277
1.3000000000000003        -3.2                     3057706.5362939104
1.4000000000000001        -3.2                     3103981.8494895278
1.5                       -3.2                     3176529.5107895443
1.6                       -3.2                     3252898.640136465
1.7000000000000002        -3.2                     3381047.6906728465
1.8000000000000003        -3.2                     3603675.8712283294
1.9000000000000001        -3.2                     4069611.4435985885
2                         -3.2                     5163575.30454904
0                         -3.1000000000000005      2655180.5831016377
0.1                       -3.1000000000000005      2658168.114039582
0.2                       -3.1000000000000005      2662932.551309702
0.30000000000000004       -3.1000000000000005      2672326.5860318244
0.4                       -3.1000000000000005      2685736.5473074527
0.5                       -3.1000000000000005      2701543.5454787393
0.6000000000000001        -3.1000000000000005      2721704.2333524823
0.7000000000000001        -3.1000000000000005      2744720.532059093
0.8                       -3.1000000000000005      2772723.7954741153
0.9000000000000001        -3.1000000000000005      2798556.55949976
1                         -3.1000000000000005      2827629.302533063
1.1                       -3.1000000000000005      2858407.582832935
1.2000000000000002        -3.1000000000000005      2889774.685420873
1.3000000000000003        -3.1000000000000005      2913862.108842005
1.4000000000000001        -3.1000000000000005      2939258.1576719093
1.5                       -3.1000000000000005      2973447.141256057
1.6                       -3.1000000000000005      2971900.6438603518
1.7000000000000002        -3.1000000000000005      2970255.4311124403
1.8000000000000003        -3.1000000000000005      3029809.224143997
1.9000000000000001        -3.1000000000000005      3233004.0249926103
2                         -3.1000000000000005      4052414.6269217026
0                         -3                       2581026.252122755
0.1                       -3                       2580430.159061976
0.2                       -3                       2585957.9141703006
0.30000000000000004       -3                       2594497.294933934
0.4                       -3                       2607193.9623387814
0.5                       -3                       2622376.8614533828
0.6000000000000001        -3                       2641074.305992621
0.7000000000000001        -3                       2662235.898187769
0.8                       -3                       2684620.652065657
0.9000000000000001        -3                       2709263.45252729
1                         -3                       2734172.8260135003
1.1                       -3                       2755728.905009696
1.2000000000000002        -3                       2774156.8384006456
1.3000000000000003        -3                       2786547.816909214
1.4000000000000001        -3                       2781906.4172661477
1.5                       -3                       2753165.6194769903
1.6                       -3                       2714553.571188749
1.7000000000000002        -3                       2604323.1664054934
1.8000000000000003        -3                       2429146.7649191036
1.9000000000000001        -3                       2168867.25676364
2                         -3                       4.470348358154297E-8
0                         -2.9                     2495078.4608449074
0.1                       -2.9                     2497811.452394614
0.2                       -2.9                     2502369.0645880536
0.30000000000000004       -2.9                     2511152.233632275
0.4                       -2.9                     2523519.623848546
0.5                       -2.9                     2538110.3054843275
0.6000000000000001        -2.9                     2556001.2827757746
0.7000000000000001        -2.9                     2575916.8381221164
0.8                       -2.9                     2598155.4521878255
0.9000000000000001        -2.9                     2618864.2529049823
1                         -2.9                     2639150.2000896903
1.1                       -2.9                     2655285.5292060073
1.2000000000000002        -2.9                     2667027.4361706683
1.3000000000000003        -2.9                     2666930.9223512695
1.4000000000000001        -2.9                     2642762.9384289337
1.5                       -2.9                     2598263.778655191
1.6                       -2.9                     2507909.4231996355
1.7000000000000002        -2.9                     2346388.061103347
1.8000000000000003        -2.9                     2028751.9205072585
1.9000000000000001        -2.9                     1465866.8519734968
2                         -2.9                     447630.979102205
0                         -2.8                     2405464.9566249144
0.1                       -2.8                     2408641.2320705415
0.2                       -2.8                     2414057.490868125
0.30000000000000004       -2.8                     2422465.4506491898
0.4                       -2.8                     2434789.127964872
0.5                       -2.8                     2449507.4787043435
0.6000000000000001        -2.8                     2467363.8268662146
0.7000000000000001        -2.8                     2487132.5556609984
0.8                       -2.8                     2507903.0886089904
0.9000000000000001        -2.8                     2529382.0863838443
1                         -2.8                     2549235.34299921
1.1                       -2.8                     2565426.5664912337
1.2000000000000002        -2.8                     2574084.6331644445
1.3000000000000003        -2.8                     2568895.6920704236
1.4000000000000001        -2.8                     2544301.932929531
1.5                       -2.8                     2493104.240200336
1.6                       -2.8                     2395226.9615024976
1.7000000000000002        -2.8                     2234334.632792306
1.8000000000000003        -2.8                     1949743.640968064
1.9000000000000001        -2.8                     1585636.3600991676
2                         -2.8                     1267584.8380545117
0                         -2.7                     2312354.322855446
0.1                       -2.7                     2315090.0797950984
0.2                       -2.7                     2319847.1402076352
0.30000000000000004       -2.7                     2328929.7742258487
0.4                       -2.7                     2341654.0678760377
0.5                       -2.7                     2356699.3695574845
0.6000000000000001        -2.7                     2375262.8220687755
0.7000000000000001        -2.7                     2395841.2439458547
0.8                       -2.7                     2418336.2471583695
0.9000000000000001        -2.7                     2440274.790359486
1                         -2.7                     2461712.6992835007
1.1                       -2.7                     2478244.1370668868
1.2000000000000002        -2.7                     2491526.537090419
1.3000000000000003        -2.7                     2490676.9715723214
1.4000000000000001        -2.7                     2479562.8556070263
1.5                       -2.7                     2441495.122318897
1.6                       -2.7                     2371181.7174386783
1.7000000000000002        -2.7                     2245667.6342095938
1.8000000000000003        -2.7                     2091015.9619629604
1.9000000000000001        -2.7                     1958837.4347179816
2                         -2.7                     1995638.1673555898
0                         -2.6                     2215669.984769006
0.1                       -2.6                     2215357.286870776
0.2                       -2.6                     2221206.984825111
0.30000000000000004       -2.6                     2230340.5528888446
0.4                       -2.6                     2243760.800670898
0.5                       -2.6                     2259991.399951844
0.6000000000000001        -2.6                     2279743.100724786
0.7000000000000001        -2.6                     2302093.860738931
0.8                       -2.6                     2326329.623208374
0.9000000000000001        -2.6                     2352165.706889022
1                         -2.6                     2377181.948001574
1.1                       -2.6                     2401881.8371535926
1.2000000000000002        -2.6                     2420532.5909242984
1.3000000000000003        -2.6                     2434042.9996522255
1.4000000000000001        -2.6                     2441305.123554993
1.5                       -2.6                     2424385.2338742805
1.6                       -2.6                     2385408.711532677
1.7000000000000002        -2.6                     2335626.038369819
1.8000000000000003        -2.6                     2288943.739520201
1.9000000000000001        -2.6                     2278671.6037143087
2                         -2.6                     2371759.06006576
0                         -2.5                     2108302.145872097
0.1                       -2.5                     2111279.3172921888
0.2                       -2.5                     2116644.84112955
0.30000000000000004       -2.5                     2126911.1760840947
0.4                       -2.5                     2141354.1403884506
0.5                       -2.5                     2158473.762487581
0.6000000000000001        -2.5                     2180533.6953530465
0.7000000000000001        -2.5                     2205413.065651852
0.8                       -2.5                     2232411.93300332
0.9000000000000001        -2.5                     2263071.3566553993
1                         -2.5                     2295075.0054477416
1.1                       -2.5                     2327379.8585256306
1.2000000000000002        -2.5                     2360217.0656143166
1.3000000000000003        -2.5                     2384044.8033458977
1.4000000000000001        -2.5                     2410619.122427516
1.5                       -2.5                     2418474.145875728
1.6                       -2.5                     2437135.2291086367
1.7000000000000002        -2.5                     2449265.4552339963
1.8000000000000003        -2.5                     2467645.110914274
1.9000000000000001        -2.5                     2520099.6045085117
2                         -2.5                     2624768.900579054
0                         -2.4                     1997157.0881952115
0.1                       -2.4                     2000832.8799256375
0.2                       -2.4                     2007535.2639816334
0.30000000000000004       -2.4                     2018076.9466260294
0.4                       -2.4                     2033701.6725149532
0.5                       -2.4                     2052930.8770921757
0.6000000000000001        -2.4                     2076713.7572088384
0.7000000000000001        -2.4                     2104503.3177213063
0.8                       -2.4                     2136000.4234734317
0.9000000000000001        -2.4                     2171713.6888468545
1                         -2.4                     2208773.7045117836
1.1                       -2.4                     2252229.884401306
1.2000000000000002        -2.4                     2297282.3607868426
1.3000000000000003        -2.4                     2342416.588346309
1.4000000000000001        -2.4                     2383783.570173893
1.5                       -2.4                     2441970.9055927503
1.6                       -2.4                     2496794.195107201
1.7000000000000002        -2.4                     2550859.810229033
1.8000000000000003        -2.4                     2628950.9309539404
1.9000000000000001        -2.4                     2728455.7569266683
2                         -2.4                     2846978.7003120854
0                         -2.3                     1882488.0080734103
0.1                       -2.3                     1885820.283678269
0.2                       -2.3                     1892069.1625056874
0.30000000000000004       -2.3                     1904032.90067794
0.4                       -2.3                     1920979.099944383
0.5                       -2.3                     1941145.5205171271
0.6000000000000001        -2.3                     1968216.164289574
0.7000000000000001        -2.3                     1999342.1263209018
0.8                       -2.3                     2033702.012788748
0.9000000000000001        -2.3                     2076246.97530275
1                         -2.3                     2122581.4377941354
1.1                       -2.3                     2172449.065135176
1.2000000000000002        -2.3                     2231762.598859977
1.3000000000000003        -2.3                     2294731.879409657
1.4000000000000001        -2.3                     2367029.7161069666
1.5                       -2.3                     2447527.0032627387
1.6                       -2.3                     2541047.669251325
1.7000000000000002        -2.3                     2646657.606019965
1.8000000000000003        -2.3                     2775463.8411813495
1.9000000000000001        -2.3                     2920323.6958567924
2                         -2.3                     3090820.094356741
0                         -2.2                     1760077.0602867648
0.1                       -2.2                     1764132.704303109
0.2                       -2.2                     1771853.428627901
0.30000000000000004       -2.2                     1784110.8680206917
0.4                       -2.2                     1802335.8358984734
0.5                       -2.2                     1825069.8815676677
0.6000000000000001        -2.2                     1853673.4141731395
0.7000000000000001        -2.2                     1887750.1034090626
0.8                       -2.2                     1927497.9702442163
0.9000000000000001        -2.2                     1974450.6750102327
1                         -2.2                     2026481.7297749273
1.1                       -2.2                     2089485.5514938575
1.2000000000000002        -2.2                     2159274.9695424996
1.3000000000000003        -2.2                     2244178.420844701
1.4000000000000001        -2.2                     2337570.773434335
1.5                       -2.2                     2443917.0390778654
1.6                       -2.2                     2581574.872849562
1.7000000000000002        -2.2                     2730655.0828104913
1.8000000000000003        -2.2                     2914790.1034787484
1.9000000000000001        -2.2                     3119024.4084127247
2                         -2.2                     3342470.3014553864
0                         -2.1                     1634117.3294338924
0.1                       -2.1                     1637767.710847918
0.2                       -2.1                     1645022.7968160328
0.30000000000000004       -2.1                     1658744.2547017129
0.4                       -2.1                     1678269.6543610026
0.5                       -2.1                     1701696.5295063478
0.6000000000000001        -2.1                     1733621.6975602016
0.7000000000000001        -2.1                     1770855.4953106877
0.8                       -2.1                     1812722.367729715
0.9000000000000001        -2.1                     1866143.3730532737
1                         -2.1                     1926006.6184764612
1.1                       -2.1                     1992794.2136872085
1.2000000000000002        -2.1                     2077439.174004898
1.3000000000000003        -2.1                     2173248.4745143433
1.4000000000000001        -2.1                     2281204.982868751
1.5                       -2.1                     2433820.1750842766
1.6                       -2.1                     2588270.4093711106
1.7000000000000002        -2.1                     2793303.4604129675
1.8000000000000003        -2.1                     3031321.820989164
1.9000000000000001        -2.1                     3317129.608775076
2                         -2.1                     3640239.2459560237
0                         -2                       1500549.5398232962
0.1                       -2                       1504837.6235047646
0.2                       -2                       1513546.8529069803
0.30000000000000004       -2                       1527536.4366469425
0.4                       -2                       1548187.86601747
0.5                       -2                       1574120.208807883