% Model:              ring_decel_osterwalder.mph
% Version:            COMSOL 5.4.0.225
% Date:               Mar 20 2019, 06:41
% Dimension:          2
% Nodes:              1281
% Expressions:        1
% Description:        Electric field norm
% Length unit:        mm
% r                       z                        es.normE (V/m) @ ph=0
0                         -3                       2978734.0918302303
0.1                       -3                       2977587.1417138996
0.2                       -3                       2982890.7153344243
0.30000000000000004       -3                       2990928.8473886107
0.4                       -3                       3003024.690019901
0.5                       -3                       3017244.4847986717
0.6000000000000001        -3                       3034587.9652639516
0.7000000000000001        -3                       3053826.4991971143
0.8                       -3                       3073809.2420824426
0.9000000000000001        -3                       3094756.2384110913
1                         -3                       3113747.5952755804
1.1                       -3                       3128772.929828194
1.2000000000000002        -3                       3136332.8058467046
1.3000000000000003        -3                       3129707.394283276
1.4000000000000001        -3                       3102541.836370703
1.5                       -3                       3035064.613643998
1.6                       -3                       2928886.982257144
1.7000000000000002        -3                       2707823.467395027
1.8000000000000003        -3                       2330726.8522469974
1.9000000000000001        -3                       1576321.4304350575
2                         -3                       1.3234889800848443E-23
0                         -2.9                     2971328.8456573132
0.1                       -2.9                     2974272.1501177014
0.2                       -2.9                     2978569.3686410957
0.30000000000000004       -2.9                     2987262.228742351
0.4                       -2.9                     2999562.412173138
0.5                       -2.9                     3013729.1188712157
0.6000000000000001        -2.9                     3031563.7341645537
0.7000000000000001        -2.9                     3051268.4854920823
0.8                       -2.9                     3072575.18230005
0.9000000000000001        -2.9                     3093424.8814957277
1                         -2.9                     3113495.4729198744
1.1                       -2.9                     3128405.279917986
1.2000000000000002        -2.9                     3139886.2397518805
1.3000000000000003        -2.9                     3137850.7703879373
1.4000000000000001        -2.9                     3113467.6182042207
1.5                       -2.9                     3066139.7560361535
1.6                       -2.9                     2973296.3296861076
1.7000000000000002        -2.9                     2806135.9689427475
1.8000000000000003        -2.9                     2527697.9826139826
1.9000000000000001        -2.9                     2153412.0128528504
2                         -2.9                     2093924.8095923727
0                         -2.8                     2959113.6452864967
0.1                       -2.8                     2962792.181294344
0.2                       -2.8                     2968343.726145479
0.30000000000000004       -2.8                     2976780.5762227266
0.4                       -2.8                     2989556.2456111643
0.5                       -2.8                     3004693.021133382
0.6000000000000001        -2.8                     3023353.331484439
0.7000000000000001        -2.8                     3044444.7092805305
0.8                       -2.8                     3066977.039285928
0.9000000000000001        -2.8                     3091733.120233121
1                         -2.8                     3115429.5676037194
1.1                       -2.8                     3137944.2264231546
1.2000000000000002        -2.8                     3155762.6356636886
1.3000000000000003        -2.8                     3170618.7845933256
1.4000000000000001        -2.8                     3163922.752713603
1.5                       -2.8                     3144449.480262235
1.6                       -2.8                     3099860.6486525955
1.7000000000000002        -2.8                     3056901.907774334
1.8000000000000003        -2.8                     2962886.6687279055
1.9000000000000001        -2.8                     3051838.9471957274
2                         -2.8                     3599160.379339347
0                         -2.7                     2942263.4955241308
0.1                       -2.7                     2945439.334145305
0.2                       -2.7                     2950092.1977612223
0.30000000000000004       -2.7                     2959624.046137053
0.4                       -2.7                     2973199.7185814795
0.5                       -2.7                     2988866.841746512
0.6000000000000001        -2.7                     3009496.369501975
0.7000000000000001        -2.7                     3032774.9324630816
0.8                       -2.7                     3060240.282482801
0.9000000000000001        -2.7                     3086750.4798778263
1                         -2.7                     3116838.8100516363
1.1                       -2.7                     3147517.2648755484
1.2000000000000002        -2.7                     3178411.4762575696
1.3000000000000003        -2.7                     3201850.9172516754
1.4000000000000001        -2.7                     3230752.775216874
1.5                       -2.7                     3251486.4134560144
1.6                       -2.7                     3289667.0128792482
1.7000000000000002        -2.7                     3303704.2676423104
1.8000000000000003        -2.7                     3399175.976865
1.9000000000000001        -2.7                     3668676.166762724
2                         -2.7                     4272765.280733957
0                         -2.6000000000000005      2920643.7990601454
0.1                       -2.6000000000000005      2919312.412196335
0.2                       -2.6000000000000005      2925489.1649297057
0.30000000000000004       -2.6000000000000005      2934926.9992795577
0.4                       -2.6000000000000005      2949415.6957843537
0.5                       -2.6000000000000005      2966881.489478269
0.6000000000000001        -2.6000000000000005      2988874.1991243414
0.7000000000000001        -2.6000000000000005      3014698.523547282
0.8                       -2.6000000000000005      3043573.61529474
0.9000000000000001        -2.6000000000000005      3077746.483766758
1                         -2.6000000000000005      3113129.929297828
1.1                       -2.6000000000000005      3154380.370866376
1.2000000000000002        -2.6000000000000005      3197164.693000853
1.3000000000000003        -2.6000000000000005      3247454.5257832827
1.4000000000000001        -2.6000000000000005      3304965.562028748
1.5                       -2.6000000000000005      3368798.4448450664
1.6                       -2.6000000000000005      3433379.8267435413
1.7000000000000002        -2.6000000000000005      3545438.192928478
1.8000000000000003        -2.6000000000000005      3732208.6591943027
1.9000000000000001        -2.6000000000000005      4040888.79358071
2                         -2.6000000000000005      4526009.321698176
0                         -2.5                     2883234.6229713666
0.1                       -2.5                     2886752.703013316
0.2                       -2.5                     2891946.6530694077
0.30000000000000004       -2.5                     2902748.9300584286
0.4                       -2.5                     2918252.7767002797
0.5                       -2.5                     2936152.879976343
0.6000000000000001        -2.5                     2961031.016129353
0.7000000000000001        -2.5                     2989684.341299262
0.8                       -2.5                     3021122.956121291
0.9000000000000001        -2.5                     3061383.6466146596
1                         -2.5                     3105835.7628661976
1.1                       -2.5                     3155531.183545808
1.2000000000000002        -2.5                     3219220.1201363183
1.3000000000000003        -2.5                     3279142.1453113225
1.4000000000000001        -2.5                     3360835.8391423
1.5                       -2.5                     3446576.521816312
1.6                       -2.5                     3573879.156395869
1.7000000000000002        -2.5                     3737487.1115803537
1.8000000000000003        -2.5                     3956083.4411897534
1.9000000000000001        -2.5                     4254531.002967936
2                         -2.5                     4630244.200055223
0                         -2.4                     2840085.4327026536
0.1                       -2.4                     2844561.4233364468
0.2                       -2.4                     2851432.1942570372
0.30000000000000004       -2.4                     2861998.671210217
0.4                       -2.4                     2878378.2952383626
0.5                       -2.4                     2898429.35848409
0.6000000000000001        -2.4                     2924176.9368574657
0.7000000000000001        -2.4                     2955157.1002613944
0.8                       -2.4                     2991214.901824131
0.9000000000000001        -2.4                     3035572.609843354
1                         -2.4                     3083856.8266718
1.1                       -2.4                     3145546.6233881796
1.2000000000000002        -2.4                     3216777.6581020313
1.3000000000000003        -2.4                     3300060.943992172
1.4000000000000001        -2.4                     3396771.7586952993
1.5                       -2.4                     3526093.90408075
1.6                       -2.4                     3687560.2347316383
1.7000000000000002        -2.4                     3868141.701541481
1.8000000000000003        -2.4                     4109994.1748062028
1.9000000000000001        -2.4                     4399483.93467705
2                         -2.4                     4710005.640607726
0                         -2.3                     2791606.752554031
0.1                       -2.3                     2795392.660067375
0.2                       -2.3                     2801064.0282534654
0.30000000000000004       -2.3                     2812957.3591291257
0.4                       -2.3                     2830102.0850829934
0.5                       -2.3                     2849900.6538917217
0.6000000000000001        -2.3                     2878433.610963655
0.7000000000000001        -2.3                     2911653.9339392865
0.8                       -2.3                     2948661.385059002
0.9000000000000001        -2.3                     2998392.823891768
1                         -2.3                     3054202.7289718725
1.1                       -2.3                     3118140.180300341
1.2000000000000002        -2.3                     3201181.2399701397
1.3000000000000003        -2.3                     3295550.7827338413
1.4000000000000001        -2.3                     3413604.5003713733
1.5                       -2.3                     3556250.4476771513
1.6                       -2.3                     3729828.331570751
1.7000000000000002        -2.3                     3947067.5635264292
1.8000000000000003        -2.3                     4204729.790621626
1.9000000000000001        -2.3                     4497684.112113253
2                         -2.3                     4805827.463287826
0                         -2.2                     2731353.6525717564
0.1                       -2.2                     2736030.9720065235
0.2                       -2.2                     2743330.129766524
0.30000000000000004       -2.2                     2754631.0492524705
0.4                       -2.2                     2772170.6389888274
0.5                       -2.2                     2793834.099198904
0.6000000000000001        -2.2                     2822016.0384197356
0.7000000000000001        -2.2                     2856183.716993656
0.8                       -2.2                     2896833.120879373
0.9000000000000001        -2.2                     2947553.807622204
1                         -2.2                     3004711.9476746335
1.1                       -2.2                     3078100.294158009
1.2000000000000002        -2.2                     3165108.2624513325
1.3000000000000003        -2.2                     3275924.720360755
1.4000000000000001        -2.2                     3400767.887842738
1.5                       -2.2                     3557324.5276102736
1.6                       -2.2                     3759030.9701438188
1.7000000000000002        -2.2                     3992076.9453493846
1.8000000000000003        -2.2                     4276063.36798525
1.9000000000000001        -2.2                     4598811.109775689
2                         -2.2                     4938288.267490298
0                         -2.1                     2665702.1533727236
0.1                       -2.1                     2669531.3668620586
0.2                       -2.1                     2675420.226073909
0.30000000000000004       -2.1                     2687716.3757527773
0.4                       -2.1                     2705447.818047145
0.5                       -2.1                     2725971.0877509
0.6000000000000001        -2.1                     2755855.312151673
0.7000000000000001        -2.1                     2790779.9574000165
0.8                       -2.1                     2830184.907607147
0.9000000000000001        -2.1                     2883254.8126855083
1                         -2.1                     2943777.001563302
1.1                       -2.1                     3014330.10569394
1.2000000000000002        -2.1                     3105122.2787702642
1.3000000000000003        -2.1                     3211499.501598974
1.4000000000000001        -2.1                     3346939.058787667
1.5                       -2.1                     3527556.4635616094
1.6                       -2.1                     3725968.949971227
1.7000000000000002        -2.1                     3996425.3145152433
1.8000000000000003        -2.1                     4311583.878305985
1.9000000000000001        -2.1                     4691827.665528015
2                         -2.1                     5115432.118386584
0                         -2                       2588475.9998006364
0.1                       -2                       2593015.9925488373
0.2                       -2                       2600286.283155069
0.30000000000000004       -2                       2611622.4584364495
0.4                       -2                       2629079.108708059
0.5                       -2                       2650680.4691862683
0.6000000000000001        -2                       2678926.283349257
0.7000000000000001        -2                       2712914.532797016
0.8                       -2                       2753594.774293116
0.9000000000000001        -2                       2804621.6203559185
1                         -2                       2861079.3944993163
1.1                       -2                       2935461.195313469
1.2000000000000002        -2                       3025788.270703162
1.3000000000000003        -2                       3134469.441694524
1.4000000000000001        -2                       3272634.4962062202
1.5                       -2                       3437693.6219097776
1.6                       -2                       3651718.72044828
1.7000000000000002        -2                       3926586.0579613163
1.8000000000000003        -2                       4299949.959230425
1.9000000000000001        -2                       4753590.131491209
2                         -2                       5309787.084907028
0                         -1.9                     2506185.0612121127
0.1                       -1.9                     2509793.062970231
0.2                       -1.9                     2515587.3806255613
0.30000000000000004       -1.9                     2527449.6572321937
0.4                       -1.9                     2544488.369243112
0.5                       -1.9                     2564366.620452642
0.6000000000000001        -1.9                     2592749.091660494
0.7000000000000001        -1.9                     2625863.9632059373
0.8                       -1.9                     2663590.9176950143
0.9000000000000001        -1.9                     2712437.598911673
1                         -1.9                     2768917.2372637084
1.1                       -1.9                     2842475.0584254353
1.2000000000000002        -1.9                     2916607.371511902
1.3000000000000003        -1.9                     3018390.415603899
1.4000000000000001        -1.9                     3145035.133069828
1.5                       -1.9                     3306663.77271359
1.6                       -1.9                     3517155.8085936005
1.7000000000000002        -1.9                     3819919.1018920243
1.8000000000000003        -1.9                     4201894.181858619
1.9000000000000001        -1.9                     4748271.54707746
2                         -1.9                     5490911.222513018
0                         -1.8                     2413484.067856378
0.1                       -1.8                     2417582.1238084487
0.2                       -1.8                     2424413.2575596515
0.30000000000000004       -1.8                     2435147.207175929
0.4                       -1.8                     2451397.316497309
0.5                       -1.8                     2471412.1817791583
0.6000000000000001        -1.8                     2497450.1698475326
0.7000000000000001        -1.8                     2528185.7856184896
0.8                       -1.8                     2564507.3265116294
0.9000000000000001        -1.8                     2609470.2770755277
1                         -1.8                     2662801.1390460865
1.1                       -1.8                     2721145.2400544067
1.2000000000000002        -1.8                     2796324.7357925205
1.3000000000000003        -1.8                     2882744.7930953517
1.4000000000000001        -1.8                     2991261.163485922
1.5                       -1.8                     3133724.624696431
1.6                       -1.8                     3325919.434077421
1.7000000000000002        -1.8                     3577061.957847909
1.8000000000000003        -1.8                     4002115.5260473886
1.9000000000000001        -1.8                     4613198.823152393
2                         -1.8                     5598911.188886187
0                         -1.7                     2316410.2974754586
0.1                       -1.7                     2319624.0386907132
0.2                       -1.7                     2325129.5099337986
0.30000000000000004       -1.7                     2336013.930609271
0.4                       -1.7                     2351506.9304308305
0.5                       -1.7                     2369853.630885847
0.6000000000000001        -1.7                     2394704.8366270578
0.7000000000000001        -1.7                     2423491.13512849
0.8                       -1.7                     2456449.572802339
0.9000000000000001        -1.7                     2495718.596092066
1                         -1.7                     2540110.981467321
1.1                       -1.7                     2596649.9509347854
1.2000000000000002        -1.7                     2652983.7031190842
1.3000000000000003        -1.7                     2725650.6534983236
1.4000000000000001        -1.7                     2810168.6912291707
1.5                       -1.7                     2923286.04370263
1.6                       -1.7                     3055794.011522774
1.7000000000000002        -1.7                     3278584.8194427537
1.8000000000000003        -1.7                     3619456.9191015507
1.9000000000000001        -1.7                     4224986.073138753
2                         -1.7                     5299260.262306686
0                         -1.5999999999999999      2210743.8085262207
0.1                       -1.5999999999999999      2214279.9561573067
0.2                       -1.5999999999999999      2220532.5800219732
0.30000000000000004       -1.5999999999999999      2230435.1272961586
0.4                       -1.5999999999999999      2245059.489514473
0.5                       -1.5999999999999999      2262909.845330404
0.6000000000000001        -1.5999999999999999      2285693.816800059
0.7000000000000001        -1.5999999999999999      2311944.5084207836
0.8                       -1.5999999999999999      2341699.822165755
0.9000000000000001        -1.5999999999999999      2376990.3871673103
1                         -1.5999999999999999      2412857.680600289
1.1                       -1.5999999999999999      2456959.4545155005
1.2000000000000002        -1.5999999999999999      2497083.5806558463
1.3000000000000003        -1.5999999999999999      2551619.814502362
1.4000000000000001        -1.5999999999999999      2618948.554553435
1.5                       -1.5999999999999999      2674735.123103006
1.6                       -1.5999999999999999      2769216.007971685
1.7000000000000002        -1.5999999999999999      2896280.6216760646
1.8000000000000003        -1.5999999999999999      3114726.257981727
1.9000000000000001        -1.5999999999999999      3528793.4609767483
2                         -1.5999999999999999      4540421.01324647
0                         -1.5                     2101550.451136192
0.1                       -1.5                     2104378.494483117
0.2                       -1.5                     2109644.4524135073
0.30000000000000004       -1.5                     2119610.03598354
0.4                       -1.5                     2133612.915656861
0.5                       -1.5                     2150529.7873026524
0.6000000000000001        -1.5                     2171763.2284704917
0.7000000000000001        -1.5                     2196001.9932415206
0.8                       -1.5                     2223476.576413738
0.9000000000000001        -1.5                     2253281.8369516023
1                         -1.5                     2284873.6142565804
1.1                       -1.5                     2318068.65942043
1.2000000000000002        -1.5                     2350439.7882153075
1.3000000000000003        -1.5                     2387738.292280989
1.4000000000000001        -1.5                     2415233.413437833
1.5                       -1.5                     2444073.5069679637
1.6                       -1.5                     2468735.3407245963
1.7000000000000002        -1.5                     2485046.9936581645
1.8000000000000003        -1.5                     2495723.20496752
1.9000000000000001        -1.5                     2606720.635507823
2                         -1.5                     0
0                         -1.4                     1985637.459298549
0.1                       -1.4                     1988739.8340496323
0.2                       -1.4                     1994650.8884175373
0.30000000000000004       -1.4                     2004074.4356224823
0.4                       -1.4                     2017637.2966473587
0.5                       -1.4                     2034094.8435740713
0.6000000000000001        -1.4                     2054457.2694670314
0.7000000000000001        -1.4                     2077327.5032852616
0.8                       -1.4                     2102024.7681304305
0.9000000000000001        -1.4                     2129282.8073089933
1                         -1.4                     2156936.285615324
1.1                       -1.4                     2181137.6819098457
1.2000000000000002        -1.4                     2205717.3985409145
1.3000000000000003        -1.4                     2219527.2992597288
1.4000000000000001        -1.4                     2223622.456915671
1.5                       -1.4                     2215557.928899863
1.6                       -1.4                     2178504.7222562693
1.7000000000000002        -1.4                     2107993.1964536775
1.8000000000000003        -1.4                     1969567.9004043033
1.9000000000000001        -1.4                     1774042.425197903
2                         -1.4                     1461215.3873302802
0                         -1.3                     1866934.6318899456
0.1                       -1.3                     1869573.2255088338
0.2                       -1.3                     1874922.7454534448
0.30000000000000004       -1.3                     1884680.7203408827
0.4                       -1.3                     1898234.6802499967
0.5                       -1.3                     1914751.0085833215
0.6000000000000001        -1.3                     1934530.0559222403
0.7000000000000001        -1.3                     1956738.284445155
0.8                       -1.3                     1980556.4444538364
0.9000000000000001        -1.3                     2005400.0476950523
1                         -1.3                     2029269.2360741594
1.1                       -1.3                     2053202.3010709547
1.2000000000000002        -1.3                     2063574.7999028778
1.3000000000000003        -1.3                     2069244.611996581
1.4000000000000001        -1.3                     2062153.9942316643
1.5                       -1.3                     2032503.867933313
1.6                       -1.3                     1958381.4591850417
1.7000000000000002        -1.3                     1828927.1746592475
1.8000000000000003        -1.3                     1608698.320191224
1.9000000000000001        -1.3                     1233178.779149964
2                         -1.3                     651416.0218427244
0                         -1.2                     1742865.1630105316
0.1                       -1.2                     1745855.5201849823
0.2                       -1.2                     1751981.590716449
0.30000000000000004       -1.2                     1761787.5131870492
0.4                       -1.2                     1775701.8026300857
0.5                       -1.2                     1792655.3808744736
0.6000000000000001        -1.2                     1813108.7789131305
0.7000000000000001        -1.2                     1835831.8921525835
0.8                       -1.2                     1860048.5704576094
0.9000000000000001        -1.2                     1884876.3571286262
1                         -1.2                     1910294.1772650476
1.1                       -1.2                     1928888.7409724288
1.2000000000000002        -1.2                     1942742.0450482308
1.3000000000000003        -1.2                     1945078.4518227163
1.4000000000000001        -1.2                     1933546.13663441
1.5                       -1.2                     1887982.565684421
1.6                       -1.2                     1809080.86468135
1.7000000000000002        -1.2                     1666383.31932236
1.8000000000000003        -1.2                     1466996.3403010394
1.9000000000000001        -1.2                     1172358.3469358692
2                         -1.2                     818789.862458372
0                         -1.0999999999999999      1616446.8604293927
0.1                       -1.0999999999999999      1619203.0913646885
0.2                       -1.0999999999999999      1625166.2415811159
0.30000000000000004       -1.0999999999999999      1635850.0197516272
0.4                       -1.0999999999999999      1650631.8887766053
0.5                       -1.0999999999999999      1668641.0211511394
0.6000000000000001        -1.0999999999999999      1690312.3519226874
0.7000000000000001        -1.0999999999999999      1714483.5312248543
0.8                       -1.0999999999999999      1740836.2312356522
0.9000000000000001        -1.0999999999999999      1767321.6770234618
1                         -1.0999999999999999      1793426.822026715
1.1                       -1.0999999999999999      1816503.2464745524
1.2000000000000002        -1.0999999999999999      1828180.7545834826
1.3000000000000003        -1.0999999999999999      1839041.762232138
1.4000000000000001        -1.0999999999999999      1824589.5004937367
1.5                       -1.0999999999999999      1792502.7194187734
1.6                       -1.0999999999999999      1736063.4181064176
1.7000000000000002        -1.0999999999999999      1622286.7336106277
1.8000000000000003        -1.0999999999999999      1464546.2826989454
1.9000000000000001        -1.0999999999999999      1270192.554670418
2                         -1.0999999999999999      1090349.094437102
0                         -1                       1485237.6381769644
0.1                       -1                       1488497.548013166
0.2                       -1                       1495551.4505622466
0.30000000000000004       -1                       1506869.5932149466
0.4                       -1                       1522941.2984513456
0.5                       -1                       1542745.2761130293