% Model:              ring_decel_osterwalder.mph
% Version:            COMSOL 5.4.0.225
% Date:               Mar 19 2019, 15:34
% Dimension:          2
% Nodes:              1281
% Expressions:        1
% Description:        Electric field norm
% Length unit:        mm
% r                       z                        es.normE (V/m) @ ph=0.47124
0                         -3                       2655312.5901211877
0.1                       -3                       2654618.38052394
0.2                       -3                       2660093.891185235
0.30000000000000004       -3                       2668522.298646717
0.4                       -3                       2681082.222341369
0.5                       -3                       2696054.539854695
0.6000000000000001        -3                       2714460.0762189752
0.7000000000000001        -3                       2735223.5106693944
0.8                       -3                       2757104.393193206
0.9000000000000001        -3                       2780979.2514572158
1                         -3                       2804777.9030214488
1.1                       -3                       2824999.670262645
1.2000000000000002        -3                       2841227.0698179076
1.3000000000000003        -3                       2850208.740670399
1.4000000000000001        -3                       2841089.6945876502
1.5                       -3                       2804974.6861293497
1.6                       -3                       2754437.994609196
1.7000000000000002        -3                       2623945.369187656
1.8000000000000003        -3                       2413193.389824346
1.9000000000000001        -3                       2079912.8118301083
2                         -3                       2.9802322387695312E-8
0                         -2.9                     2576498.507328505
0.1                       -2.9                     2579253.127565565
0.2                       -2.9                     2583735.867302862
0.30000000000000004       -2.9                     2592445.658315225
0.4                       -2.9                     2604712.931745048
0.5                       -2.9                     2619118.7938356027
0.6000000000000001        -2.9                     2636830.4390937765
0.7000000000000001        -2.9                     2656483.567670667
0.8                       -2.9                     2678313.394326958
0.9000000000000001        -2.9                     2698601.090019403
1                         -2.9                     2718271.53200419
1.1                       -2.9                     2733417.634752576
1.2000000000000002        -2.9                     2744002.2423103363
1.3000000000000003        -2.9                     2741991.1446968643
1.4000000000000001        -2.9                     2715150.638369343
1.5                       -2.9                     2666622.6585870595
1.6                       -2.9                     2569607.688656707
1.7000000000000002        -2.9                     2396531.081111771
1.8000000000000003        -2.9                     2061262.3392455464
1.9000000000000001        -2.9                     1464914.950155083
2                         -2.9                     342700.68997580645
0                         -2.8                     2493852.5600305046
0.1                       -2.8                     2497084.396108211
0.2                       -2.8                     2502471.836612974
0.30000000000000004       -2.8                     2510801.654171175
0.4                       -2.8                     2523065.182375633
0.5                       -2.8                     2537675.2215913655
0.6000000000000001        -2.8                     2555412.5275466125
0.7000000000000001        -2.8                     2575056.5187880574
0.8                       -2.8                     2595682.5339874257
0.9000000000000001        -2.8                     2617029.622355521
1                         -2.8                     2636667.4183777743
1.1                       -2.8                     2652734.4854033887
1.2000000000000002        -2.8                     2661104.2345082276
1.3000000000000003        -2.8                     2656296.7682081265
1.4000000000000001        -2.8                     2631228.8543135873
1.5                       -2.8                     2579660.236976698
1.6                       -2.8                     2481534.6865528836
1.7000000000000002        -2.8                     2324445.234883761
1.8000000000000003        -2.8                     2046080.2519072287
1.9000000000000001        -2.8                     1716339.6353412091
2                         -2.8                     1509659.0615804824
0                         -2.7                     2407546.136208174
0.1                       -2.7                     2410322.7445075014
0.2                       -2.7                     2415009.4479702916
0.30000000000000004       -2.7                     2424055.424291517
0.4                       -2.7                     2436749.4792755637
0.5                       -2.7                     2451688.4310397864
0.6000000000000001        -2.7                     2470261.1045570336
0.7000000000000001        -2.7                     2490850.197548999
0.8                       -2.7                     2513540.116022461
0.9000000000000001        -2.7                     2535492.5449459776
1                         -2.7                     2557260.241189221
1.1                       -2.7                     2574415.1868851027
1.2000000000000002        -2.7                     2588583.2404114795
1.3000000000000003        -2.7                     2588834.7635567463
1.4000000000000001        -2.7                     2580125.284454093
1.5                       -2.7                     2545275.5663246964
1.6                       -2.7                     2482834.6407499616
1.7000000000000002        -2.7                     2366936.2734066527
1.8000000000000003        -2.7                     2234143.6486996887
1.9000000000000001        -2.7                     2144504.961087893
2                         -2.7                     2250966.961074282
0                         -2.6000000000000005      2317495.6169815753
0.1                       -2.6000000000000005      2317029.384802929
0.2                       -2.6000000000000005      2322858.803273778
0.30000000000000004       -2.6000000000000005      2331925.4157460965
0.4                       -2.6000000000000005      2345328.663027947
0.5                       -2.6000000000000005      2361512.968135301
0.6000000000000001        -2.6000000000000005      2381280.608107825
0.7000000000000001        -2.6000000000000005      2403727.7757856403
0.8                       -2.6000000000000005      2428126.740308474
0.9000000000000001        -2.6000000000000005      2454435.816967341
1                         -2.6000000000000005      2480032.583893056
1.1                       -2.6000000000000005      2505881.1189020886
1.2000000000000002        -2.6000000000000005      2526218.549655157
1.3000000000000003        -2.6000000000000005      2542637.845867271
1.4000000000000001        -2.6000000000000005      2553948.5115920044
1.5                       -2.6000000000000005      2543919.1210030434
1.6                       -2.6000000000000005      2513898.4654204072
1.7000000000000002        -2.6000000000000005      2479676.3677621894
1.8000000000000003        -2.6000000000000005      2457375.28352825
1.9000000000000001        -2.6000000000000005      2483355.4774094378
2                         -2.6000000000000005      2623432.0026108213
0                         -2.5                     2216091.97172647
0.1                       -2.5                     2219116.5311925313
0.2                       -2.5                     2224391.6290197126
0.30000000000000004       -2.5                     2234611.811139975
0.4                       -2.5                     2249025.940978523
0.5                       -2.5                     2266033.9645803813
0.6000000000000001        -2.5                     2288174.9628493097
0.7000000000000001        -2.5                     2313191.3482462624
0.8                       -2.5                     2340349.414379999
0.9000000000000001        -2.5                     2371686.4498534664
1                         -2.5                     2404616.249965086
1.1                       -2.5                     2438350.1722857626
1.2000000000000002        -2.5                     2473943.8526438447
1.3000000000000003        -2.5                     2500961.1530889138
1.4000000000000001        -2.5                     2532842.2724164813
1.5                       -2.5                     2548233.327983356
1.6                       -2.5                     2578206.219656139
1.7000000000000002        -2.5                     2606674.337445185
1.8000000000000003        -2.5                     2647631.8979423516
1.9000000000000001        -2.5                     2729055.2728458187
2                         -2.5                     2866300.5244020745
0                         -2.4                     2110657.862920368
0.1                       -2.4                     2114411.8852810212
0.2                       -2.4                     2121061.36377246
0.30000000000000004       -2.4                     2131482.4660940897
0.4                       -2.4                     2147030.2825576747
0.5                       -2.4                     2166142.1767280796
0.6000000000000001        -2.4                     2189902.3799580242
0.7000000000000001        -2.4                     2217772.479171028
0.8                       -2.4                     2249468.462077126
0.9000000000000001        -2.4                     2285829.3251915458
1                         -2.4                     2323787.1344994544
1.1                       -2.4                     2368929.105076176
1.2000000000000002        -2.4                     2416621.813402274
1.3000000000000003        -2.4                     2465649.486932225
1.4000000000000001        -2.4                     2512879.6522279102
1.5                       -2.4                     2579061.069680875
1.6                       -2.4                     2645957.4685743577
1.7000000000000002        -2.4                     2714694.300674066
1.8000000000000003        -2.4                     2812576.670214852
1.9000000000000001        -2.4                     2935315.4537141817
2                         -2.4                     3077335.9229006916
0                         -2.3                     2001466.1607759483
0.1                       -2.3                     2004829.2021662008
0.2                       -2.3                     2010921.1104595335
0.30000000000000004       -2.3                     2022739.909080281
0.4                       -2.3                     2039525.3592529858
0.5                       -2.3                     2059412.9512097824
0.6000000000000001        -2.3                     2086394.8757905997
0.7000000000000001        -2.3                     2117477.1556326887
0.8                       -2.3                     2151835.9541333774
0.9000000000000001        -2.3                     2194930.614675367
1                         -2.3                     2242085.3286251957
1.1                       -2.3                     2293369.9946135045
1.2000000000000002        -2.3                     2355307.672508834
1.3000000000000003        -2.3                     2421880.6509287236
1.4000000000000001        -2.3                     2499699.0210065925
1.5                       -2.3                     2587838.240671825
1.6                       -2.3                     2691512.196816361
1.7000000000000002        -2.3                     2811159.647136085
1.8000000000000003        -2.3                     2956576.699950141
1.9000000000000001        -2.3                     3120663.3092589485
2                         -2.3                     3309135.5680711567
0                         -2.2                     1884012.5388494208
0.1                       -2.2                     1888116.3451707514
0.2                       -2.2                     1895687.538144796
0.30000000000000004       -2.2                     1907666.7806157772
0.4                       -2.2                     1925595.8493650474
0.5                       -2.2                     1947937.6631750101
0.6000000000000001        -2.2                     1976202.0390722908
0.7000000000000001        -2.2                     2009986.2839709807
0.8                       -2.2                     2049533.8931610337
0.9000000000000001        -2.2                     2096690.3669154297
1                         -2.2                     2149143.7183416723
1.1                       -2.2                     2213296.283943826
1.2000000000000002        -2.2                     2285231.1257794616
1.3000000000000003        -2.2                     2373568.467609191
1.4000000000000001        -2.2                     2471387.2151265726
1.5                       -2.2                     2584605.5487466594
1.6                       -2.2                     2731435.5754573075
1.7000000000000002        -2.2                     2892491.079788682
1.8000000000000003        -2.2                     3091002.0444134055
1.9000000000000001        -2.2                     3311839.0791519643
2                         -2.2                     3551495.547211245
0                         -2.1                     1762771.628554667
0.1                       -2.1                     1766405.8599155238
0.2                       -2.1                     1773368.562323156
0.30000000000000004       -2.1                     1786719.975465736
0.4                       -2.1                     1805768.0827364956
0.5                       -2.1                     1828522.3816817154
0.6000000000000001        -2.1                     1859868.223648689
0.7000000000000001        -2.1                     1896481.3266150404
0.8                       -2.1                     1937717.6391525595
0.9000000000000001        -2.1                     1990880.0275831544
1                         -2.1                     2050686.8418160414
1.1                       -2.1                     2117972.8174905363
1.2000000000000002        -2.1                     2203778.690905208
1.3000000000000003        -2.1                     2301381.6613432476
1.4000000000000001        -2.1                     2413810.1581413816
1.5                       -2.1                     2571791.1627022107
1.6                       -2.1                     2733567.4693928305
1.7000000000000002        -2.1                     2949486.205730147
1.8000000000000003        -2.1                     3200291.2540043946
1.9000000000000001        -2.1                     3501300.978099567
2                         -2.1                     3840295.3357813107
0                         -2                       1633411.2042570447
0.1                       -2                       1637680.8711192827
0.2                       -2                       1646055.757616178
0.30000000000000004       -2                       1659463.6588964155
0.4                       -2                       1679390.4289994363
0.5                       -2                       1704394.5495632656
0.6000000000000001        -2                       1736408.013497342
0.7000000000000001        -2                       1774757.2462774685
0.8                       -2                       1820157.4370166382
0.9000000000000001        -2                       1875649.397371673
1                         -2                       1937905.7268677347
1.1                       -2                       2015726.2186057097
1.2000000000000002        -2                       2108202.380673468
1.3000000000000003        -2                       2217461.8074019994
1.4000000000000001        -2                       2357059.998251638
1.5                       -2                       2513437.0390604977
1.6                       -2                       2713864.519181579
1.7000000000000002        -2                       2960012.4704753025
1.8000000000000003        -2                       3288283.6794946217
1.9000000000000001        -2                       3675991.969128493
2                         -2                       4146456.7094553313
0                         -1.9                     1500548.25140883
0.1                       -1.9                     1504303.966218
0.2                       -1.9                     1512133.2718812064
0.30000000000000004       -1.9                     1526715.2794758375
0.4                       -1.9                     1547526.8556772075
0.5                       -1.9                     1572769.0431748452
0.6000000000000001        -1.9                     1606960.9167337825
0.7000000000000001        -1.9                     1647267.27679611
0.8                       -1.9                     1693501.0242776426
0.9000000000000001        -1.9                     1751887.9911821831
1                         -1.9                     1819044.6468628028
1.1                       -1.9                     1904716.261629387
1.2000000000000002        -1.9                     1993815.552337984
1.3000000000000003        -1.9                     2108987.725696311
1.4000000000000001        -1.9                     2251276.3116858765
1.5                       -1.9                     2429806.5336595667
1.6                       -1.9                     2650374.613473811
1.7000000000000002        -1.9                     2956100.1167508885
1.8000000000000003        -1.9                     3320853.4313053144
1.9000000000000001        -1.9                     3820115.154201806
2                         -1.9                     4462195.439894373
0                         -1.8                     1360597.3267673587
0.1                       -1.8                     1364819.8544653303
0.2                       -1.8                     1373895.366734705
0.30000000000000004       -1.8                     1388623.6535602391
0.4                       -1.8                     1410127.6982300796
0.5                       -1.8                     1437125.9984942898
0.6000000000000001        -1.8                     1471789.6440719715
0.7000000000000001        -1.8                     1512929.5901323415
0.8                       -1.8                     1561273.0831155046
0.9000000000000001        -1.8                     1620923.485838026
1                         -1.8                     1691493.574410216
1.1                       -1.8                     1770648.4589411574
1.2000000000000002        -1.8                     1868482.8533439308
1.3000000000000003        -1.8                     1986689.0661080582
1.4000000000000001        -1.8                     2131182.3992673885
1.5                       -1.8                     2313963.186549678
1.6                       -1.8                     2552457.8607134083
1.7000000000000002        -1.8                     2857918.96543942
1.8000000000000003        -1.8                     3300321.896929574
1.9000000000000001        -1.8                     3899613.7919696877
2                         -1.8                     4769138.4241916435
0                         -1.7                     1217817.737308362
0.1                       -1.7                     1221614.2493484174
0.2                       -1.7                     1230486.1600347236
0.30000000000000004       -1.7                     1246291.9715571327
0.4                       -1.7                     1268728.4665940125
0.5                       -1.7                     1296509.593907835
0.6000000000000001        -1.7                     1332387.999875802
0.7000000000000001        -1.7                     1374850.4087529832
0.8                       -1.7                     1424286.8483108936
0.9000000000000001        -1.7                     1483429.6674059252
1                         -1.7                     1550992.7448856116
1.1                       -1.7                     1636020.641210177
1.2000000000000002        -1.7                     1729065.2556297455
1.3000000000000003        -1.7                     1847184.8245072053
1.4000000000000001        -1.7                     1988223.2671531898
1.5                       -1.7                     2170910.891953594
1.6                       -1.7                     2392216.970493988
1.7000000000000002        -1.7                     2726430.9501207187
1.8000000000000003        -1.7                     3166813.677784404
1.9000000000000001        -1.7                     3827910.012600452
2                         -1.7                     4841487.35222062
0                         -1.5999999999999999      1069828.2873093823
0.1                       -1.5999999999999999      1073976.6972339114
0.2                       -1.5999999999999999      1084047.301074632
0.30000000000000004       -1.5999999999999999      1100587.22276401
0.4                       -1.5999999999999999      1124098.8287167842
0.5                       -1.5999999999999999      1153456.5895990727
0.6000000000000001        -1.5999999999999999      1190730.8303429603
0.7000000000000001        -1.5999999999999999      1234280.8428465414
0.8                       -1.5999999999999999      1283969.1921668528
0.9000000000000001        -1.5999999999999999      1344607.0212852221
1                         -1.5999999999999999      1410016.2639329543
1.1                       -1.5999999999999999      1492588.1206444805
1.2000000000000002        -1.5999999999999999      1575468.1279757456
1.3000000000000003        -1.5999999999999999      1694540.6783835206
1.4000000000000001        -1.5999999999999999      1832909.7075527727
1.5                       -1.5999999999999999      1992969.5922254608
1.6                       -1.5999999999999999      2222373.3997566476
1.7000000000000002        -1.5999999999999999      2517382.199607995
1.8000000000000003        -1.5999999999999999      2952486.3697889945
1.9000000000000001        -1.5999999999999999      3597541.300222269
2                         -1.5999999999999999      4691769.917076733
0                         -1.5                     919964.0929760007
0.1                       -1.5                     923996.3557111085
0.2                       -1.5                     934667.7251722593
0.30000000000000004       -1.5                     952757.0027096292
0.4                       -1.5                     978087.5229911355
0.5                       -1.5                     1009961.7842009831
0.6000000000000001        -1.5                     1048496.1868403604
0.7000000000000001        -1.5                     1093763.1998628397
0.8                       -1.5                     1146277.8045743138
0.9000000000000001        -1.5                     1205589.8030698784
1                         -1.5                     1271288.424732201
1.1                       -1.5                     1349782.474911991
1.2000000000000002        -1.5                     1435973.2169306825
1.3000000000000003        -1.5                     1543266.4139686213
1.4000000000000001        -1.5                     1665555.9934449797
1.5                       -1.5                     1819964.360380098
1.6                       -1.5                     2015484.1625728218
1.7000000000000002        -1.5                     2273977.2595853643
1.8000000000000003        -1.5                     2641319.534934126
1.9000000000000001        -1.5                     3206939.1999191423
2                         -1.5                     1.0745380149674383E-7
0                         -1.4                     767167.6696787364
0.1                       -1.4                     771681.7135134552
0.2                       -1.4                     784069.6633403251
0.30000000000000004       -1.4                     804452.7686384289
0.4                       -1.4                     832485.050958698
0.5                       -1.4                     867069.1743282041
0.6000000000000001        -1.4                     909508.7687035063
0.7000000000000001        -1.4                     957784.4811536841
0.8                       -1.4                     1010809.8444396955
0.9000000000000001        -1.4                     1072990.6814622208
1                         -1.4                     1140325.4617152922
1.1                       -1.4                     1211352.2870052261
1.2000000000000002        -1.4                     1298424.0534591968
1.3000000000000003        -1.4                     1387125.4880407716
1.4000000000000001        -1.4                     1497028.7992208598
1.5                       -1.4                     1632736.0013562278
1.6                       -1.4                     1791220.7095336574
1.7000000000000002        -1.4                     2010275.3057930162
1.8000000000000003        -1.4                     2302510.870566852
1.9000000000000001        -1.4                     2733502.2650286835
2                         -1.4                     3340189.1545693516
0                         -1.3                     613490.1149852835
0.1                       -1.3                     618602.8885242846
0.2                       -1.3                     633368.8064375658
0.30000000000000004       -1.3                     657312.8538825713
0.4                       -1.3                     689882.6749862651
0.5                       -1.3                     730242.7122139644
0.6000000000000001        -1.3                     776391.0875007896
0.7000000000000001        -1.3                     828932.425954384
0.8                       -1.3                     885190.4446971338
0.9000000000000001        -1.3                     949425.4295180071
1                         -1.3                     1015891.3870660227
1.1                       -1.3                     1092088.4003854534
1.2000000000000002        -1.3                     1165349.4206909959
1.3000000000000003        -1.3                     1244957.15823178
1.4000000000000001        -1.3                     1344901.5808724489
1.5                       -1.3                     1458497.9050404383
1.6                       -1.3                     1585876.6173563171
1.7000000000000002        -1.3                     1732410.110975701
1.8000000000000003        -1.3                     1960245.4002033402
1.9000000000000001        -1.3                     2259075.7825695686
2                         -1.3                     2698433.3128379565
0                         -1.2                     458930.57246916223
0.1                       -1.2                     465431.6019160072
0.2                       -1.2                     484387.06034651084
0.30000000000000004       -1.2                     514699.88039288577
0.4                       -1.2                     554384.1586855218
0.5                       -1.2                     601542.5598926343
0.6000000000000001        -1.2                     655796.8294938854
0.7000000000000001        -1.2                     714651.2988237285
0.8                       -1.2                     776753.7154404611
0.9000000000000001        -1.2                     843728.0107369146
1                         -1.2                     913754.9379853872
1.1                       -1.2                     982975.9255865259
1.2000000000000002        -1.2                     1059150.7460409831
1.3000000000000003        -1.2                     1129188.501470691
1.4000000000000001        -1.2                     1218579.5979297145
1.5                       -1.2                     1299620.991665143
1.6                       -1.2                     1385015.5337275069
1.7000000000000002        -1.2                     1515149.6971224227
1.8000000000000003        -1.2                     1664055.6918871196
1.9000000000000001        -1.2                     1870962.1401094396
2                         -1.2                     2174788.647552061
0                         -1.0999999999999999      304270.78264309326
0.1                       -1.0999999999999999      313799.83808383776
0.2                       -1.0999999999999999      341068.3549624083
0.30000000000000004       -1.0999999999999999      382054.7565183783
0.4                       -1.0999999999999999      433244.7315607934
0.5                       -1.0999999999999999      491783.71116908465
0.6000000000000001        -1.0999999999999999      554434.5501049971
0.7000000000000001        -1.0999999999999999      620833.029694077
0.8                       -1.0999999999999999      690284.4914945036
0.9000000000000001        -1.0999999999999999      759822.560156042
1                         -1.0999999999999999      830585.8839102181
1.1                       -1.0999999999999999      902124.341528724
1.2000000000000002        -1.0999999999999999      969963.1610571183
1.3000000000000003        -1.0999999999999999      1040328.4456150302
1.4000000000000001        -1.0999999999999999      1105574.8846481305
1.5                       -1.0999999999999999      1167916.6610038283
1.6                       -1.0999999999999999      1242307.3223694854
1.7000000000000002        -1.0999999999999999      1309549.843230646
1.8000000000000003        -1.0999999999999999      1394481.306674013
1.9000000000000001        -1.0999999999999999      1519965.430655218
2                         -1.0999999999999999      1714453.3524739486
0                         -1                       150067.08553386963
0.1                       -1                       168407.28962962521
0.2                       -1                       214554.63246254539
0.30000000000000004       -1                       274953.24861261575
0.4                       -1                       341993.2968272875
0.5                       -1                       412547.8326484931