% Model:              ring_decel_osterwalder.mph
% Version:            COMSOL 5.4.0.225
% Date:               Mar 19 2019, 15:33
% Dimension:          2
% Nodes:              1281
% Expressions:        1
% Description:        Electric field norm
% Length unit:        mm
% r                       z                        es.normE (V/m) @ ph=0
0                         -3                       2978734.091830231
0.1                       -3                       2977587.1417138996
0.2                       -3                       2982890.715334424
0.30000000000000004       -3                       2990928.8473886102
0.4                       -3                       3003024.6900199004
0.5                       -3                       3017244.484798671
0.6000000000000001        -3                       3034587.9652639506
0.7000000000000001        -3                       3053826.4991971143
0.8                       -3                       3073809.2420824426
0.9000000000000001        -3                       3094756.2384110927
1                         -3                       3113747.5952755804
1.1                       -3                       3128772.929828195
1.2000000000000002        -3                       3136332.805846705
1.3000000000000003        -3                       3129707.3942832765
1.4000000000000001        -3                       3102541.836370703
1.5                       -3                       3035064.6136439987
1.6                       -3                       2928886.982257144
1.7000000000000002        -3                       2707823.467395027
1.8000000000000003        -3                       2330726.852246998
1.9000000000000001        -3                       1576321.4304350575
2                         -3                       1.3234889800848443E-23
0                         -2.9                     2971328.8456573132
0.1                       -2.9                     2974272.1501177014
0.2                       -2.9                     2978569.368641095
0.30000000000000004       -2.9                     2987262.2287423504
0.4                       -2.9                     2999562.412173138
0.5                       -2.9                     3013729.1188712157
0.6000000000000001        -2.9                     3031563.7341645528
0.7000000000000001        -2.9                     3051268.485492082
0.8                       -2.9                     3072575.1823000507
0.9000000000000001        -2.9                     3093424.8814957277
1                         -2.9                     3113495.472919877
1.1                       -2.9                     3128405.279917987
1.2000000000000002        -2.9                     3139886.2397518805
1.3000000000000003        -2.9                     3137850.7703879373
1.4000000000000001        -2.9                     3113467.6182042207
1.5                       -2.9                     3066139.7560361545
1.6                       -2.9                     2973296.3296861076
1.7000000000000002        -2.9                     2806135.9689427475
1.8000000000000003        -2.9                     2527697.9826139826
1.9000000000000001        -2.9                     2153412.012852851
2                         -2.9                     2093924.8095923734
0                         -2.8                     2959113.6452864967
0.1                       -2.8                     2962792.181294344
0.2                       -2.8                     2968343.726145479
0.30000000000000004       -2.8                     2976780.5762227266
0.4                       -2.8                     2989556.2456111643
0.5                       -2.8                     3004693.021133382
0.6000000000000001        -2.8                     3023353.331484439
0.7000000000000001        -2.8                     3044444.7092805305
0.8                       -2.8                     3066977.039285927
0.9000000000000001        -2.8                     3091733.12023312
1                         -2.8                     3115429.5676037185
1.1                       -2.8                     3137944.2264231564
1.2000000000000002        -2.8                     3155762.635663692
1.3000000000000003        -2.8                     3170618.7845933265
1.4000000000000001        -2.8                     3163922.752713602
1.5                       -2.8                     3144449.480262233
1.6                       -2.8                     3099860.6486525955
1.7000000000000002        -2.8                     3056901.907774334
1.8000000000000003        -2.8                     2962886.668727902
1.9000000000000001        -2.8                     3051838.9471957274
2                         -2.8                     3599160.379339347
0                         -2.7                     2942263.4955241308
0.1                       -2.7                     2945439.334145305
0.2                       -2.7                     2950092.1977612223
0.30000000000000004       -2.7                     2959624.046137053
0.4                       -2.7                     2973199.7185814795
0.5                       -2.7                     2988866.841746512
0.6000000000000001        -2.7                     3009496.369501975
0.7000000000000001        -2.7                     3032774.9324630816
0.8                       -2.7                     3060240.2824827977
0.9000000000000001        -2.7                     3086750.479877828
1                         -2.7                     3116838.8100516354
1.1                       -2.7                     3147517.2648755503
1.2000000000000002        -2.7                     3178411.4762575678
1.3000000000000003        -2.7                     3201850.9172516745
1.4000000000000001        -2.7                     3230752.775216874
1.5                       -2.7                     3251486.4134560144
1.6                       -2.7                     3289667.0128792482
1.7000000000000002        -2.7                     3303704.2676423104
1.8000000000000003        -2.7                     3399175.976865
1.9000000000000001        -2.7                     3668676.166762724
2                         -2.7                     4272765.280733955
0                         -2.6000000000000005      2920643.7990601454
0.1                       -2.6000000000000005      2919312.412196335
0.2                       -2.6000000000000005      2925489.1649297057
0.30000000000000004       -2.6000000000000005      2934926.9992795577
0.4                       -2.6000000000000005      2949415.6957843537
0.5                       -2.6000000000000005      2966881.489478269
0.6000000000000001        -2.6000000000000005      2988874.1991243414
0.7000000000000001        -2.6000000000000005      3014698.523547282
0.8                       -2.6000000000000005      3043573.61529474
0.9000000000000001        -2.6000000000000005      3077746.4837667565
1                         -2.6000000000000005      3113129.9292978314
1.1                       -2.6000000000000005      3154380.370866376
1.2000000000000002        -2.6000000000000005      3197164.6930008493
1.3000000000000003        -2.6000000000000005      3247454.5257832827
1.4000000000000001        -2.6000000000000005      3304965.5620287405
1.5                       -2.6000000000000005      3368798.4448450664
1.6                       -2.6000000000000005      3433379.8267435413
1.7000000000000002        -2.6000000000000005      3545438.192928478
1.8000000000000003        -2.6000000000000005      3732208.6591943027
1.9000000000000001        -2.6000000000000005      4040888.7935807095
2                         -2.6000000000000005      4526009.321698176
0                         -2.5                     2883234.6229713666
0.1                       -2.5                     2886752.703013316
0.2                       -2.5                     2891946.6530694077
0.30000000000000004       -2.5                     2902748.9300584286
0.4                       -2.5                     2918252.7767002797
0.5                       -2.5                     2936152.8799763406
0.6000000000000001        -2.5                     2961031.016129354
0.7000000000000001        -2.5                     2989684.3412992633
0.8                       -2.5                     3021122.956121291
0.9000000000000001        -2.5                     3061383.6466146596
1                         -2.5                     3105835.7628661995
1.1                       -2.5                     3155531.1835458046
1.2000000000000002        -2.5                     3219220.1201363183
1.3000000000000003        -2.5                     3279142.14531133
1.4000000000000001        -2.5                     3360835.8391423016
1.5                       -2.5                     3446576.521816308
1.6                       -2.5                     3573879.15639587
1.7000000000000002        -2.5                     3737487.1115803537
1.8000000000000003        -2.5                     3956083.4411897534
1.9000000000000001        -2.5                     4254531.002967936
2                         -2.5                     4630244.200055223
0                         -2.4                     2840085.4327026536
0.1                       -2.4                     2844561.4233364468
0.2                       -2.4                     2851432.1942570372
0.30000000000000004       -2.4                     2861998.671210217
0.4                       -2.4                     2878378.2952383626
0.5                       -2.4                     2898429.35848409
0.6000000000000001        -2.4                     2924176.936857466
0.7000000000000001        -2.4                     2955157.1002613944
0.8                       -2.4                     2991214.90182413
0.9000000000000001        -2.4                     3035572.609843354
1                         -2.4                     3083856.8266718048
1.1                       -2.4                     3145546.623388185
1.2000000000000002        -2.4                     3216777.658102038
1.3000000000000003        -2.4                     3300060.9439921835
1.4000000000000001        -2.4                     3396771.758695299
1.5                       -2.4                     3526093.90408075
1.6                       -2.4                     3687560.2347316328
1.7000000000000002        -2.4                     3868141.701541481
1.8000000000000003        -2.4                     4109994.1748062028
1.9000000000000001        -2.4                     4399483.93467705
2                         -2.4                     4710005.640607726
0                         -2.3                     2791606.752554031
0.1                       -2.3                     2795392.660067375
0.2                       -2.3                     2801064.0282534654
0.30000000000000004       -2.3                     2812957.3591291257
0.4                       -2.3                     2830102.0850829934
0.5                       -2.3                     2849900.6538917217
0.6000000000000001        -2.3                     2878433.6109636556
0.7000000000000001        -2.3                     2911653.9339392823
0.8                       -2.3                     2948661.3850589977
0.9000000000000001        -2.3                     2998392.823891772
1                         -2.3                     3054202.728971875
1.1                       -2.3                     3118140.1803003494
1.2000000000000002        -2.3                     3201181.239970137
1.3000000000000003        -2.3                     3295550.7827338413
1.4000000000000001        -2.3                     3413604.5003713607
1.5                       -2.3                     3556250.447677149
1.6                       -2.3                     3729828.331570759
1.7000000000000002        -2.3                     3947067.5635264292
1.8000000000000003        -2.3                     4204729.790621619
1.9000000000000001        -2.3                     4497684.112113257
2                         -2.3                     4805827.463287826
0                         -2.2                     2731353.6525717564
0.1                       -2.2                     2736030.9720065235
0.2                       -2.2                     2743330.129766524
0.30000000000000004       -2.2                     2754631.0492524705
0.4                       -2.2                     2772170.6389888274
0.5                       -2.2                     2793834.099198904
0.6000000000000001        -2.2                     2822016.0384197356
0.7000000000000001        -2.2                     2856183.7169936635
0.8                       -2.2                     2896833.1208793754
0.9000000000000001        -2.2                     2947553.8076222064
1                         -2.2                     3004711.9476746353
1.1                       -2.2                     3078100.294158008
1.2000000000000002        -2.2                     3165108.2624513293
1.3000000000000003        -2.2                     3275924.720360757
1.4000000000000001        -2.2                     3400767.887842738
1.5                       -2.2                     3557324.5276102736
1.6                       -2.2                     3759030.970143811
1.7000000000000002        -2.2                     3992076.945349393
1.8000000000000003        -2.2                     4276063.367985262
1.9000000000000001        -2.2                     4598811.109775689
2                         -2.2                     4938288.267490297
0                         -2.1                     2665702.1533727236
0.1                       -2.1                     2669531.3668620586
0.2                       -2.1                     2675420.226073909
0.30000000000000004       -2.1                     2687716.3757527773
0.4                       -2.1                     2705447.818047145
0.5                       -2.1                     2725971.0877509
0.6000000000000001        -2.1                     2755855.312151673
0.7000000000000001        -2.1                     2790779.957400013
0.8                       -2.1                     2830184.9076071326
0.9000000000000001        -2.1                     2883254.8126855087
1                         -2.1                     2943777.001563302
1.1                       -2.1                     3014330.105693918
1.2000000000000002        -2.1                     3105122.2787702587
1.3000000000000003        -2.1                     3211499.501598973
1.4000000000000001        -2.1                     3346939.0587876756
1.5                       -2.1                     3527556.4635616117
1.6                       -2.1                     3725968.949971224
1.7000000000000002        -2.1                     3996425.3145152233
1.8000000000000003        -2.1                     4311583.878305986
1.9000000000000001        -2.1                     4691827.665528014
2                         -2.1                     5115432.1183865825
0                         -2                       2588475.9998006364
0.1                       -2                       2593015.9925488373
0.2                       -2                       2600286.283155069
0.30000000000000004       -2                       2611622.4584364495
0.4                       -2                       2629079.1087080627
0.5                       -2                       2650680.4691862683
0.6000000000000001        -2                       2678926.283349257
0.7000000000000001        -2                       2712914.53279702
0.8                       -2                       2753594.774293116
0.9000000000000001        -2                       2804621.6203559088
1                         -2                       2861079.394499316
1.1                       -2                       2935461.195313469
1.2000000000000002        -2                       3025788.270703159
1.3000000000000003        -2                       3134469.4416945386
1.4000000000000001        -2                       3272634.4962062216
1.5                       -2                       3437693.6219097883
1.6                       -2                       3651718.720448279
1.7000000000000002        -2                       3926586.0579613037
1.8000000000000003        -2                       4299949.959230434
1.9000000000000001        -2                       4753590.131491209
2                         -2                       5309787.084907028
0                         -1.9                     2506185.061212111
0.1                       -1.9                     2509793.062970231
0.2                       -1.9                     2515587.3806255595
0.30000000000000004       -1.9                     2527449.6572321956
0.4                       -1.9                     2544488.3692431115
0.5                       -1.9                     2564366.620452642
0.6000000000000001        -1.9                     2592749.091660494
0.7000000000000001        -1.9                     2625863.9632059373
0.8                       -1.9                     2663590.9176950133
0.9000000000000001        -1.9                     2712437.598911676
1                         -1.9                     2768917.2372637074
1.1                       -1.9                     2842475.0584254353
1.2000000000000002        -1.9                     2916607.3715119036
1.3000000000000003        -1.9                     3018390.415603894
1.4000000000000001        -1.9                     3145035.1330698235
1.5                       -1.9                     3306663.772713593
1.6                       -1.9                     3517155.8085935903
1.7000000000000002        -1.9                     3819919.101892014
1.8000000000000003        -1.9                     4201894.181858619
1.9000000000000001        -1.9                     4748271.54707746
2                         -1.9                     5490911.222513018
0                         -1.8                     2413484.0678563737
0.1                       -1.8                     2417582.1238084496
0.2                       -1.8                     2424413.257559659
0.30000000000000004       -1.8                     2435147.207175937
0.4                       -1.8                     2451397.3164973087
0.5                       -1.8                     2471412.181779162
0.6000000000000001        -1.8                     2497450.1698475326
0.7000000000000001        -1.8                     2528185.7856184826
0.8                       -1.8                     2564507.326511628
0.9000000000000001        -1.8                     2609470.27707552
1                         -1.8                     2662801.139046085
1.1                       -1.8                     2721145.2400544076
1.2000000000000002        -1.8                     2796324.7357925465
1.3000000000000003        -1.8                     2882744.793095355
1.4000000000000001        -1.8                     2991261.1634859317
1.5                       -1.8                     3133724.62469643
1.6                       -1.8                     3325919.434077422
1.7000000000000002        -1.8                     3577061.9578479086
1.8000000000000003        -1.8                     4002115.5260473858
1.9000000000000001        -1.8                     4613198.823152393
2                         -1.8                     5598911.188886187
0                         -1.7                     2316410.2974754637
0.1                       -1.7                     2319624.0386907132
0.2                       -1.7                     2325129.5099337883
0.30000000000000004       -1.7                     2336013.9306092747
0.4                       -1.7                     2351506.9304308207
0.5                       -1.7                     2369853.6308858455
0.6000000000000001        -1.7                     2394704.8366270578
0.7000000000000001        -1.7                     2423491.13512849
0.8                       -1.7                     2456449.572802339
0.9000000000000001        -1.7                     2495718.5960920677
1                         -1.7                     2540110.981467323
1.1                       -1.7                     2596649.9509347803
1.2000000000000002        -1.7                     2652983.703119092
1.3000000000000003        -1.7                     2725650.6534983227
1.4000000000000001        -1.7                     2810168.691229175
1.5                       -1.7                     2923286.0437026224
1.6                       -1.7                     3055794.0115227546
1.7000000000000002        -1.7                     3278584.8194427537
1.8000000000000003        -1.7                     3619456.9191015507
1.9000000000000001        -1.7                     4224986.073138753
2                         -1.7                     5299260.262306686
0                         -1.5999999999999999      2210743.8085262207
0.1                       -1.5999999999999999      2214279.9561573067
0.2                       -1.5999999999999999      2220532.5800219714
0.30000000000000004       -1.5999999999999999      2230435.1272961614
0.4                       -1.5999999999999999      2245059.489514472
0.5                       -1.5999999999999999      2262909.8453304004
0.6000000000000001        -1.5999999999999999      2285693.816800061
0.7000000000000001        -1.5999999999999999      2311944.5084207817
0.8                       -1.5999999999999999      2341699.8221657607
0.9000000000000001        -1.5999999999999999      2376990.387167311
1                         -1.5999999999999999      2412857.680600285
1.1                       -1.5999999999999999      2456959.4545155247
1.2000000000000002        -1.5999999999999999      2497083.580655863
1.3000000000000003        -1.5999999999999999      2551619.8145023664
1.4000000000000001        -1.5999999999999999      2618948.5545534273
1.5                       -1.5999999999999999      2674735.123102986
1.6                       -1.5999999999999999      2769216.007971685
1.7000000000000002        -1.5999999999999999      2896280.6216760646
1.8000000000000003        -1.5999999999999999      3114726.257981727
1.9000000000000001        -1.5999999999999999      3528793.4609767483
2                         -1.5999999999999999      4540421.01324647
0                         -1.5                     2101550.451136185
0.1                       -1.5                     2104378.4944831105
0.2                       -1.5                     2109644.4524135073
0.30000000000000004       -1.5                     2119610.0359835336
0.4                       -1.5                     2133612.915656861
0.5                       -1.5                     2150529.7873026524
0.6000000000000001        -1.5                     2171763.2284704926
0.7000000000000001        -1.5                     2196001.993241528
0.8                       -1.5                     2223476.5764137814
0.9000000000000001        -1.5                     2253281.8369516004
1                         -1.5                     2284873.6142565818
1.1                       -1.5                     2318068.659420429
1.2000000000000002        -1.5                     2350439.7882153005
1.3000000000000003        -1.5                     2387738.292280989
1.4000000000000001        -1.5                     2415233.413437833
1.5                       -1.5                     2444073.5069679637
1.6                       -1.5                     2468735.3407245963
1.7000000000000002        -1.5                     2485046.9936581645
1.8000000000000003        -1.5                     2495723.20496752
1.9000000000000001        -1.5                     2606720.635507823
2                         -1.5                     0
0                         -1.4                     1985637.459298549
0.1                       -1.4                     1988739.8340496323
0.2                       -1.4                     1994650.8884175373
0.30000000000000004       -1.4                     2004074.4356224823
0.4                       -1.4                     2017637.2966473587
0.5                       -1.4                     2034094.8435740713
0.6000000000000001        -1.4                     2054457.2694670314
0.7000000000000001        -1.4                     2077327.5032852315
0.8                       -1.4                     2102024.76813043
0.9000000000000001        -1.4                     2129282.8073089933
1                         -1.4                     2156936.2856153385
1.1                       -1.4                     2181137.681909848
1.2000000000000002        -1.4                     2205717.398540908
1.3000000000000003        -1.4                     2219527.2992597288
1.4000000000000001        -1.4                     2223622.4569156575
1.5                       -1.4                     2215557.9288998796
1.6                       -1.4                     2178504.7222562693
1.7000000000000002        -1.4                     2107993.1964536775
1.8000000000000003        -1.4                     1969567.9004043033
1.9000000000000001        -1.4                     1774042.425197903
2                         -1.4                     1461215.3873302802
0                         -1.3                     1866934.6318899493
0.1                       -1.3                     1869573.2255088338
0.2                       -1.3                     1874922.7454534448
0.30000000000000004       -1.3                     1884680.7203408827
0.4                       -1.3                     1898234.6802499967
0.5                       -1.3                     1914751.0085833373
0.6000000000000001        -1.3                     1934530.055922244
0.7000000000000001        -1.3                     1956738.2844451566
0.8                       -1.3                     1980556.4444538457
0.9000000000000001        -1.3                     2005400.0476950682
1                         -1.3                     2029269.2360741657
1.1                       -1.3                     2053202.3010709414
1.2000000000000002        -1.3                     2063574.799902875
1.3000000000000003        -1.3                     2069244.6119966009
1.4000000000000001        -1.3                     2062153.994231664
1.5                       -1.3                     2032503.8679333078
1.6                       -1.3                     1958381.4591850417
1.7000000000000002        -1.3                     1828927.1746592475
1.8000000000000003        -1.3                     1608698.320191224
1.9000000000000001        -1.3                     1233178.779149964
2                         -1.3                     651416.0218427244
0                         -1.2                     1742865.1630105427
0.1                       -1.2                     1745855.5201849907
0.2                       -1.2                     1751981.5907164486
0.30000000000000004       -1.2                     1761787.5131870487
0.4                       -1.2                     1775701.8026300855
0.5                       -1.2                     1792655.380874482
0.6000000000000001        -1.2                     1813108.778913136
0.7000000000000001        -1.2                     1835831.8921525844
0.8                       -1.2                     1860048.5704576084
0.9000000000000001        -1.2                     1884876.3571286078
1                         -1.2                     1910294.1772650473
1.1                       -1.2                     1928888.74097243
1.2000000000000002        -1.2                     1942742.0450482366
1.3000000000000003        -1.2                     1945078.4518227293
1.4000000000000001        -1.2                     1933546.1366343934
1.5                       -1.2                     1887982.565684421
1.6                       -1.2                     1809080.86468135
1.7000000000000002        -1.2                     1666383.31932236
1.8000000000000003        -1.2                     1466996.3403010394
1.9000000000000001        -1.2                     1172358.3469358692
2                         -1.2                     818789.862458372
0                         -1.0999999999999999      1616446.860429389
0.1                       -1.0999999999999999      1619203.0913646817
0.2                       -1.0999999999999999      1625166.241581115
0.30000000000000004       -1.0999999999999999      1635850.0197516282
0.4                       -1.0999999999999999      1650631.8887766064
0.5                       -1.0999999999999999      1668641.0211511631
0.6000000000000001        -1.0999999999999999      1690312.3519226902
0.7000000000000001        -1.0999999999999999      1714483.531224878
0.8                       -1.0999999999999999      1740836.231235662
0.9000000000000001        -1.0999999999999999      1767321.6770234634
1                         -1.0999999999999999      1793426.8220267023
1.1                       -1.0999999999999999      1816503.2464745443
1.2000000000000002        -1.0999999999999999      1828180.7545834554
1.3000000000000003        -1.0999999999999999      1839041.7622321146
1.4000000000000001        -1.0999999999999999      1824589.500493719
1.5                       -1.0999999999999999      1792502.7194187734
1.6                       -1.0999999999999999      1736063.4181064176
1.7000000000000002        -1.0999999999999999      1622286.733610626
1.8000000000000003        -1.0999999999999999      1464546.2826989454
1.9000000000000001        -1.0999999999999999      1270192.5546703846
2                         -1.0999999999999999      1090349.094437102
0                         -1                       1485237.6381769755
0.1                       -1                       1488497.5480131668
0.2                       -1                       1495551.4505622522
0.30000000000000004       -1                       1506869.5932149643
0.4                       -1                       1522941.2984513536
0.5                       -1                       1542745.2761130254