% Model:              ring_decel_osterwalder.mph
% Version:            COMSOL 5.4.0.225
% Date:               Mar 19 2019, 15:34
% Dimension:          2
% Nodes:              1281
% Expressions:        1
% Description:        Electric field norm
% Length unit:        mm
% r                       z                        es.normE (V/m) @ ph=0.31416
0                         -3                       2833789.232366168
0.1                       -3                       2832860.4950643466
0.2                       -3                       2838231.9902040088
0.30000000000000004       -3                       2846429.791952596
0.4                       -3                       2858711.621016277
0.5                       -3                       2873241.72768895
0.6000000000000001        -3                       2891026.426326402
0.7000000000000001        -3                       2910922.8129894366
0.8                       -3                       2931702.072311345
0.9000000000000001        -3                       2953874.5556274243
1                         -3                       2975103.9030856905
1.1                       -3                       2992308.1119796964
1.2000000000000002        -3                       3003510.490179393
1.3000000000000003        -3                       3004341.5527263796
1.4000000000000001        -3                       2984831.1660156087
1.5                       -3                       2931275.8940666798
1.6                       -3                       2851655.723856082
1.7000000000000002        -3                       2671831.962491643
1.8000000000000003        -3                       2371653.127849259
1.9000000000000001        -3                       1834127.3453940502
2                         -3                       0
0                         -2.9                     2777591.3013812928
0.1                       -2.9                     2780416.570937493
0.2                       -2.9                     2784756.069310768
0.30000000000000004       -2.9                     2793359.6954916525
0.4                       -2.9                     2805491.159196665
0.5                       -2.9                     2819582.6542575005
0.6000000000000001        -2.9                     2837050.431176002
0.7000000000000001        -2.9                     2856313.2332925033
0.8                       -2.9                     2877423.539402804
0.9000000000000001        -2.9                     2897132.349940789
1                         -2.9                     2915871.1702380953
1.1                       -2.9                     2929352.286938925
1.2000000000000002        -2.9                     2938152.453109322
1.3000000000000003        -2.9                     2932921.163790864
1.4000000000000001        -2.9                     2901926.2319736644
1.5                       -2.9                     2846734.99935375
1.6                       -2.9                     2739017.2276224336
1.7000000000000002        -2.9                     2547163.6699477225
1.8000000000000003        -2.9                     2191147.9048216525
1.9000000000000001        -2.9                     1580433.393443591
2                         -2.9                     758712.4982257453
0                         -2.8                     2717127.744535619
0.1                       -2.8                     2720528.0813897657
0.2                       -2.8                     2725907.158258736
0.30000000000000004       -2.8                     2734146.02704793
0.4                       -2.8                     2746420.429263156
0.5                       -2.8                     2760969.7982711275
0.6000000000000001        -2.8                     2778697.1778204828
0.7000000000000001        -2.8                     2798406.995715752
0.8                       -2.8                     2819138.8937000004
0.9000000000000001        -2.8                     2840847.154144159
1                         -2.8                     2860805.1523875757
1.1                       -2.8                     2877707.5853316006
1.2000000000000002        -2.8                     2887097.187271729
1.3000000000000003        -2.8                     2885995.7634400516
1.4000000000000001        -2.8                     2863003.1220094045
1.5                       -2.8                     2815846.4602183104
1.6                       -2.8                     2725811.2391141267
1.7000000000000002        -2.8                     2593585.0515339277
1.8000000000000003        -2.8                     2357022.518972129
1.9000000000000001        -2.8                     2157661.3571096994
2                         -2.8                     2247344.784051464
0                         -2.7                     2652575.5216299635
0.1                       -2.7                     2655489.1472782963
0.2                       -2.7                     2660070.2239987613
0.30000000000000004       -2.7                     2669159.392687755
0.4                       -2.7                     2681979.541965637
0.5                       -2.7                     2696902.9073978383
0.6000000000000001        -2.7                     2715866.4154853974
0.7000000000000001        -2.7                     2736953.4222915396
0.8                       -2.7                     2760774.8724709065
0.9000000000000001        -2.7                     2783528.5385337225
1                         -2.7                     2807206.209575096
1.1                       -2.7                     2827565.830088538
1.2000000000000002        -2.7                     2845872.079545773
1.3000000000000003        -2.7                     2851623.4609105717
1.4000000000000001        -2.7                     2852842.0096226223
1.5                       -2.7                     2832143.7279136768
1.6                       -2.7                     2798747.6925595053
1.7000000000000002        -2.7                     2719714.6521178936
1.8000000000000003        -2.7                     2659953.7825453156
1.9000000000000001        -2.7                     2697374.9915783172
2                         -2.7                     2993281.1824565413
0                         -2.6000000000000005      2583831.33359435
0.1                       -2.6000000000000005      2582980.2750688903
0.2                       -2.6000000000000005      2588852.178581331
0.30000000000000004       -2.6000000000000005      2597901.0906447046
0.4                       -2.6000000000000005      2611494.476122476
0.5                       -2.6000000000000005      2627861.8854094874
0.6000000000000001        -2.6000000000000005      2648073.849919453
0.7000000000000001        -2.6000000000000005      2671286.2664496955
0.8                       -2.6000000000000005      2696738.8099367647
0.9000000000000001        -2.6000000000000005      2725147.466253457
1                         -2.6000000000000005      2753324.4473265493
1.1                       -2.6000000000000005      2783571.4620381976
1.2000000000000002        -2.6000000000000005      2810300.1488019815
1.3000000000000003        -2.6000000000000005      2836919.678556357
1.4000000000000001        -2.6000000000000005      2862268.159097998
1.5                       -2.6000000000000005      2875317.2925684117
1.6                       -2.6000000000000005      2875087.8777343235
1.7000000000000002        -2.6000000000000005      2889681.0353161376
1.8000000000000003        -2.6000000000000005      2940426.1249847044
1.9000000000000001        -2.6000000000000005      3069799.4941235883
2                         -2.6000000000000005      3339724.9397290833
0                         -2.5                     2501918.7556319414
0.1                       -2.5                     2505109.3089511544
0.2                       -2.5                     2510248.822960838
0.30000000000000004       -2.5                     2520528.9319553445
0.4                       -2.5                     2535127.6648844015
0.5                       -2.5                     2552166.2924243836
0.6000000000000001        -2.5                     2574958.776004757
0.7000000000000001        -2.5                     2600870.106273758
0.8                       -2.5                     2629068.6899863705
0.9000000000000001        -2.5                     2663035.406739608
1                         -2.5                     2699417.3983095605
1.1                       -2.5                     2738128.389808897
1.2000000000000002        -2.5                     2782796.8983226856
1.3000000000000003        -2.5                     2820348.863384075
1.4000000000000001        -2.5                     2868914.028828157
1.5                       -2.5                     2907866.7123756283
1.6                       -2.5                     2971841.8554787342
1.7000000000000002        -2.5                     3048420.7982490123
1.8000000000000003        -2.5                     3154174.38604089
1.9000000000000001        -2.5                     3316685.8945683287
2                         -2.5                     3544069.994702907
0                         -2.4                     2415284.890137178
0.1                       -2.4                     2419294.899103807
0.2                       -2.4                     2425926.952688298
0.30000000000000004       -2.4                     2436228.6694255956
0.4                       -2.4                     2451858.2857762543
0.5                       -2.4                     2471020.0211394476
0.6000000000000001        -2.4                     2495166.457444163
0.7000000000000001        -2.4                     2523782.093453243
0.8                       -2.4                     2556626.195682957
0.9000000000000001        -2.4                     2595450.108256461
1                         -2.4                     2636651.236530071
1.1                       -2.4                     2687320.820332596
1.2000000000000002        -2.4                     2743200.2448593075
1.3000000000000003        -2.4                     2804161.8356341566
1.4000000000000001        -2.4                     2868932.483827476
1.5                       -2.4                     2958304.8564153654
1.6                       -2.4                     3059973.0848098686
1.7000000000000002        -2.4                     3170356.5059267273
1.8000000000000003        -2.4                     3323152.06194644
1.9000000000000001        -2.4                     3509870.520633664
2                         -2.4                     3716555.7580843726
0                         -2.3                     2324256.932446298
0.1                       -2.3                     2327753.5367029356
0.2                       -2.3                     2333564.648129592
0.30000000000000004       -2.3                     2345229.9352632686
0.4                       -2.3                     2361906.807176613
0.5                       -2.3                     2381441.917442061
0.6000000000000001        -2.3                     2408664.2524545146
0.7000000000000001        -2.3                     2440167.263753064
0.8                       -2.3                     2475105.9976078193
0.9000000000000001        -2.3                     2520324.4563894114
1                         -2.3                     2570368.504835448
1.1                       -2.3                     2626144.101369974
1.2000000000000002        -2.3                     2695888.9661439126
1.3000000000000003        -2.3                     2772921.043424679
1.4000000000000001        -2.3                     2866283.7982096015
1.5                       -2.3                     2975670.498469811
1.6                       -2.3                     3107087.161310003
1.7000000000000002        -2.3                     3265139.6009799764
1.8000000000000003        -2.3                     3455411.2162968973
1.9000000000000001        -2.3                     3671157.474274141
2                         -2.3                     3907907.811298811
0                         -2.2                     2223548.1583311423
0.1                       -2.2                     2227843.273324299
0.2                       -2.2                     2235184.267106883
0.30000000000000004       -2.2                     2246693.453265208
0.4                       -2.2                     2264202.9045086578
0.5                       -2.2                     2285949.149202345
0.6000000000000001        -2.2                     2313821.4745869916
0.7000000000000001        -2.2                     2347380.9516025395
0.8                       -2.2                     2386981.474001994
0.9000000000000001        -2.2                     2435243.1277966006
1                         -2.2                     2489338.6033584764
1.1                       -2.2                     2557044.356921446
1.2000000000000002        -2.2                     2635065.9987714575
1.3000000000000003        -2.2                     2732768.8616874074
1.4000000000000001        -2.2                     2842271.4160807785
1.5                       -2.2                     2973737.642786789
1.6                       -2.2                     3144398.5906839026
1.7000000000000002        -2.2                     3336510.6428699633
1.8000000000000003        -2.2                     3572146.4939660635
1.9000000000000001        -2.2                     3836357.1699713087
2                         -2.2                     4118507.023284473
0                         -2.1                     2118401.33503925
0.1                       -2.1                     2122067.228860407
0.2                       -2.1                     2128456.375096695
0.30000000000000004       -2.1                     2141158.733482702
0.4                       -2.1                     2159383.0741854343
0.5                       -2.1                     2180881.671067426
0.6000000000000001        -2.1                     2211276.8680499904
0.7000000000000001        -2.1                     2246852.1204527817
0.8                       -2.1                     2287018.147524647
0.9000000000000001        -2.1                     2339998.66786997
1                         -2.1                     2400076.135746699
1.1                       -2.1                     2468919.6255913246
1.2000000000000002        -2.1                     2557629.231023263
1.3000000000000003        -2.1                     2659779.3017909164
1.4000000000000001        -2.1                     2783310.5139831183
1.5                       -2.1                     2953845.7435325393
1.6                       -2.1                     3133583.183130175
1.7000000000000002        -2.1                     3376141.4942292115
1.8000000000000003        -2.1                     3658295.4437781554
1.9000000000000001        -2.1                     3997063.153858712
2                         -2.1                     4375923.583430336
0                         -2                       2003739.460927691
0.1                       -2                       2008059.0671413254
0.2                       -2                       2015815.6327487892
0.30000000000000004       -2                       2028109.9529445886
0.4                       -2                       2046681.841707251
0.5                       -2                       2069893.1144526391
0.6000000000000001        -2                       2099954.7659532875
0.7000000000000001        -2                       2136143.365485205
0.8                       -2                       2179318.2452922636
0.9000000000000001        -2                       2232922.722139825
1                         -2                       2293017.102405964
1.1                       -2                       2370074.7267057095
1.2000000000000002        -2                       2462957.6184520517
1.3000000000000003        -2                       2574278.758041953
1.4000000000000001        -2                       2716767.978460304
1.5                       -2                       2880553.740600009
1.6                       -2                       3092445.2527090404
1.7000000000000002        -2                       3357533.2057954455
1.8000000000000003        -2                       3712794.408160597
1.9000000000000001        -2                       4136359.0421923576
2                         -2                       4650839.866310233
0                         -1.9                     1884948.32003456
0.1                       -1.9                     1888564.5164399727
0.2                       -1.9                     1895343.7449042401
0.30000000000000004       -1.9                     1908463.9087447769
0.4                       -1.9                     1927278.3680934021
0.5                       -1.9                     1949785.9409588603
0.6000000000000001        -1.9                     1981076.5745742065
0.7000000000000001        -1.9                     2017949.7465609221
0.8                       -1.9                     2060287.5364190582
0.9000000000000001        -1.9                     2114705.8409284996
1                         -1.9                     2177732.1579902666
1.1                       -1.9                     2259459.4223096864
1.2000000000000002        -1.9                     2344010.3836699403
1.3000000000000003        -1.9                     2456423.8449349687
1.4000000000000001        -1.9                     2596541.6566700297
1.5                       -1.9                     2774402.697834137
1.6                       -1.9                     2999174.35825719
1.7000000000000002        -1.9                     3314657.6857514926
1.8000000000000003        -1.9                     3698949.6116640307
1.9000000000000001        -1.9                     4231074.317524505
2                         -1.9                     4927461.624207804
0                         -1.8                     1757745.5606371993
0.1                       -1.8                     1761803.4976944483
0.2                       -1.8                     1769657.2387025112
0.30000000000000004       -1.8                     1782265.7629745484
0.4                       -1.8                     1800985.7671574722
0.5                       -1.8                     1824392.1676954716
0.6000000000000001        -1.8                     1854739.6625696074
0.7000000000000001        -1.8                     1890868.6757445312
0.8                       -1.8                     1933680.2508239846
0.9000000000000001        -1.8                     1987012.816236544
1                         -1.8                     2050815.1793944226
1.1                       -1.8                     2122103.9560828996
1.2000000000000002        -1.8                     2212386.1070387927
1.3000000000000003        -1.8                     2320756.751197713
1.4000000000000001        -1.8                     2455568.9428944066
1.5                       -1.8                     2629688.120397186
1.6                       -1.8                     2860027.9032570836
1.7000000000000002        -1.8                     3158592.9919857155
1.8000000000000003        -1.8                     3611840.4663660354
1.9000000000000001        -1.8                     4236644.634090696
2                         -1.8                     5173032.126954126
0                         -1.7                     1627110.660557623
0.1                       -1.7                     1630510.7559222963
0.2                       -1.7                     1637579.2587392412
0.30000000000000004       -1.7                     1650679.3445925114
0.4                       -1.7                     1669358.5679300195
0.5                       -1.7                     1692190.45843404
0.6000000000000001        -1.7                     1722412.2706539659
0.7000000000000001        -1.7                     1758124.732161525
0.8                       -1.7                     1799723.569511947
0.9000000000000001        -1.7                     1849966.831237824
1                         -1.7                     1907657.1325446335
1.1                       -1.7                     1981598.862166382
1.2000000000000002        -1.7                     2060983.155676764
1.3000000000000003        -1.7                     2163485.7229418047
1.4000000000000001        -1.7                     2286992.89366427
1.5                       -1.7                     2449774.105398204
1.6                       -1.7                     2647757.189690659
1.7000000000000002        -1.7                     2957227.406115088
1.8000000000000003        -1.7                     3382314.911783283
1.9000000000000001        -1.7                     4051086.4028680627
2                         -1.7                     5119611.474138699
0                         -1.5999999999999999      1489968.7266094512
0.1                       -1.5999999999999999      1493628.7654343592
0.2                       -1.5999999999999999      1501508.2189538702
0.30000000000000004       -1.5999999999999999      1514324.914440465
0.4                       -1.5999999999999999      1532865.224022219
0.5                       -1.5999999999999999      1555959.5846514348
0.6000000000000001        -1.5999999999999999      1585540.121078712
0.7000000000000001        -1.5999999999999999      1620207.6357212109
0.8                       -1.5999999999999999      1660056.904148824
0.9000000000000001        -1.5999999999999999      1708821.0279787832
1                         -1.5999999999999999      1760919.74655857
1.1                       -1.5999999999999999      1827575.7371529203
1.2000000000000002        -1.5999999999999999      1892963.5553056356
1.3000000000000003        -1.5999999999999999      1988587.5555231108
1.4000000000000001        -1.5999999999999999      2102753.8107921924
1.5                       -1.5999999999999999      2228401.0559993642
1.6                       -1.5999999999999999      2417896.6246521976
1.7000000000000002        -1.5999999999999999      2667013.160606451
1.8000000000000003        -1.5999999999999999      3050199.7860852536
1.9000000000000001        -1.5999999999999999      3649660.974956016
2                         -1.5999999999999999      4757681.787287219
0                         -1.5                     1350335.4325157136
0.1                       -1.5                     1353536.4646691398
0.2                       -1.5                     1361081.0371954702
0.30000000000000004       -1.5                     1374363.37391402
0.4                       -1.5                     1393089.4338000864
0.5                       -1.5                     1416535.5385481445
0.6000000000000001        -1.5                     1445441.0907929498
0.7000000000000001        -1.5                     1479432.4346524177
0.8                       -1.5                     1519021.1698967603
0.9000000000000001        -1.5                     1563722.1792938109
1                         -1.5                     1613322.5968544555
1.1                       -1.5                     1671343.3061676826
1.2000000000000002        -1.5                     1734820.0221302547
1.3000000000000003        -1.5                     1814217.8071668525
1.4000000000000001        -1.5                     1900847.1429560296
1.5                       -1.5                     2011032.73866488
1.6                       -1.5                     2149769.688001622
1.7000000000000002        -1.5                     2334695.870745812
1.8000000000000003        -1.5                     2601362.219800317
1.9000000000000001        -1.5                     3056256.618194596
2                         -1.5                     8.429369702178807E-8
0                         -1.4                     1206390.8415204615
0.1                       -1.4                     1209801.1657585748
0.2                       -1.4                     1218127.5348567767
0.30000000000000004       -1.4                     1231795.8531783652
0.4                       -1.4                     1250995.7412249704
0.5                       -1.4                     1274826.3982809677
0.6000000000000001        -1.4                     1304468.9609784505
0.7000000000000001        -1.4                     1338477.6151111922
0.8                       -1.4                     1376138.9500277336
0.9000000000000001        -1.4                     1420154.8337274925
1                         -1.4                     1467608.2468987762
1.1                       -1.4                     1516202.9078121446
1.2000000000000002        -1.4                     1575089.9420855322
1.3000000000000003        -1.4                     1630871.4977621648
1.4000000000000001        -1.4                     1696515.6956146595
1.5                       -1.4                     1777366.9126467677
1.6                       -1.4                     1862922.5990329096
1.7000000000000002        -1.4                     1985707.672695938
1.8000000000000003        -1.4                     2145777.5019308897
1.9000000000000001        -1.4                     2409238.0315007837
2                         -1.4                     2774281.6018873625
0                         -1.3                     1060885.1718111332
0.1                       -1.3                     1064179.4413787695
0.2                       -1.3                     1072887.011793171
0.30000000000000004       -1.3                     1087573.9915848502
0.4                       -1.3                     1107955.2400974443
0.5                       -1.3                     1133639.1665442209
0.6000000000000001        -1.3                     1163708.9658089778
0.7000000000000001        -1.3                     1198470.7104914242
0.8                       -1.3                     1236004.8978815398
0.9000000000000001        -1.3                     1278970.4741702366
1                         -1.3                     1323002.4533604695
1.1                       -1.3                     1372854.934177056
1.2000000000000002        -1.3                     1413968.15796825
1.3000000000000003        -1.3                     1459016.4597366925
1.4000000000000001        -1.3                     1510523.274875141
1.5                       -1.3                     1561747.777974705
1.6                       -1.3                     1605385.895938094
1.7000000000000002        -1.3                     1641896.4478007273
1.8000000000000003        -1.3                     1713228.3725949477
1.9000000000000001        -1.3                     1802016.010033141
2                         -1.3                     1970001.8937361627
0                         -1.2                     912929.9525193652
0.1                       -1.2                     916599.5089390748
0.2                       -1.2                     926533.94875414
0.30000000000000004       -1.2                     942834.5108904217
0.4                       -1.2                     965187.1078135886
0.5                       -1.2                     992811.3306168709
0.6000000000000001        -1.2                     1025876.7485344107
0.7000000000000001        -1.2                     1062891.0247272253
0.8                       -1.2                     1102940.0389254526
0.9000000000000001        -1.2                     1146010.4910811966
1                         -1.2                     1191499.7979961596
1.1                       -1.2                     1233250.07291026
1.2000000000000002        -1.2                     1277068.4402060516
1.3000000000000003        -1.2                     1310782.3530354355
1.4000000000000001        -1.2                     1349285.3882306514
1.5                       -1.2                     1365479.6355747916
1.6                       -1.2                     1369151.4416441538
1.7000000000000002        -1.2                     1373595.1953403568
1.8000000000000003        -1.2                     1363806.6892105832
1.9000000000000001        -1.2                     1360704.966314963
2                         -1.2                     1404966.2773859233
0                         -1.0999999999999999      764097.1356329562
0.1                       -1.0999999999999999      768157.0917725881
0.2                       -1.0999999999999999      779613.9032183557
0.30000000000000004       -1.0999999999999999      798443.728132439
0.4                       -1.0999999999999999      824058.3834408403
0.5                       -1.0999999999999999      855843.4377363053
0.6000000000000001        -1.0999999999999999      892219.0610907366
0.7000000000000001        -1.0999999999999999      932935.1503059054
0.8                       -1.0999999999999999      977555.9825975031
0.9000000000000001        -1.0999999999999999      1022226.3101362805
1                         -1.0999999999999999      1068057.4348225212
1.1                       -1.0999999999999999      1112592.695435732
1.2000000000000002        -1.0999999999999999      1148014.340584043
1.3000000000000003        -1.0999999999999999      1182863.5318736085
1.4000000000000001        -1.0999999999999999      1200790.4700614002
1.5                       -1.0999999999999999      1206194.4698030164
1.6                       -1.0999999999999999      1200038.9247592406
1.7000000000000002        -1.0999999999999999      1150964.7944387735
1.8000000000000003        -1.0999999999999999      1077666.503966579
1.9000000000000001        -1.0999999999999999      994865.6913093863
2                         -1.0999999999999999      952228.042292848
0                         -1                       613923.9370791946
0.1                       -1                       618909.4994103061
0.2                       -1                       633039.8593559518
0.30000000000000004       -1                       655862.6813055923
0.4                       -1                       686438.8305267908
0.5                       -1                       723592.8782414692